LAMMPS data file via write_data, version 22 Jul 2025, timestep = 170000, units = metal

28800 atoms
2 atom types

0.8230826831967178 94.84691731680405 xlo xhi
0.4752070066324641 54.75989300536686 ylo yhi
-0.16384688706391207 62.387614887063386 zlo zhi

Masses

1 69.723
2 14.007

Atoms # atomic

7 2 3.8238924093342828 2.5990946053136925 1.8863279914037059 0 0 0
5 1 3.6570779771307023 0.587250491732363 1.3682046261906864 0 0 0
11 2 6.908802401813438 2.2246010801420257 1.7479661774394808 0 0 0
9 1 6.849103197994465 54.59484322794332 1.2337276247607036 0 -1 0
15 2 9.938698129457201 2.203040678038479 1.569714135987575 0 0 0
19 2 13.180767905318243 1.9297152579838615 1.4688189471259125 0 0 0
55 1 11.687463111915049 2.7200752184017114 0.6485790215137078 0 0 0
23 2 16.290015970150215 1.2664387867789155 1.1492174246100886 0 0 0
59 1 14.819445053149607 2.329254598212789 0.44437159446702956 0 0 0
63 1 17.89186012993929 2.0786409561036705 0.4939478261641365 0 0 0
27 2 19.48767783714386 1.3114034277267281 1.1223249277260625 0 0 0
67 1 21.07343190822837 2.3425558608012014 0.5873963734407789 0 0 0
31 2 22.73978800590984 1.4336233834465846 1.1177434124676775 0 0 0
35 2 26.228257758859147 1.5937330084039811 1.3802688970759842 0 0 0
71 1 24.485417080597358 2.328510227416692 0.6229677134488754 0 0 0
39 2 29.367626574747696 1.588801656002124 1.2945685450987936 0 0 0
75 1 27.77451818901686 2.863810015168898 0.47951163237815375 0 0 0
79 1 30.639363335771836 2.873263339831474 0.5636424160313283 0 0 0
43 1 2.3135512044356754 3.472084719908214 1.0038497026263584 0 0 0
45 2 2.127869157177359 5.417246120915205 1.4690727318349437 0 0 0
47 1 5.5577542195795075 3.404084524345662 0.9012261649512443 0 0 0
49 2 5.205052305669809 5.304257689002026 1.4637051027458736 0 0 0
51 1 8.433305180648318 3.0657006648451866 0.7600407130861973 0 0 0
53 2 8.334793793348274 4.972719302104715 1.4963198488797518 0 0 0
94 1 9.991058239680141 5.436350422365248 0.6177153488015674 0 0 0
57 2 11.52053291984283 4.575478446773676 1.4710277054206533 0 0 0
98 1 13.11266626663432 5.0624762307602165 0.31810513122175177 0 0 0
61 2 14.530677340600915 4.103306276296183 1.1257246991241527 0 0 0
102 1 16.210256131740937 4.714919780730883 0.5707701057428831 0 0 0
65 2 17.765757644989648 3.8562041146723396 1.2686200529099747 0 0 0
69 2 21.317373786618468 3.9736345878725556 1.627021692824373 0 0 0
106 1 19.495412950241796 4.651029653493294 0.9125560733764 0 0 0
110 1 22.855634947361363 5.109294261472527 0.6449185430973472 0 0 0
73 2 24.416444805564076 4.056325265851453 1.455267936735073 0 0 0
114 1 25.700021749169743 5.459425087695703 0.6603775815646357 0 0 0
77 2 27.403176372452087 4.638837629289174 1.4199546490698762 0 0 0
80 2 30.468169160541155 4.5201428020618035 1.5886756940383662 0 0 0
88 2 3.6807686036609164 7.945405221181109 1.2296987168007638 0 0 0
86 1 3.7502499463176093 6.155526563438959 0.4397729115374504 0 0 0
90 1 6.926929171964118 5.787815783058785 0.461335535970057 0 0 0
92 2 6.874193345131354 7.663863528625187 1.24033933365382 0 0 0
132 1 8.534635433338842 8.030658711736521 0.2796255258340673 0 0 0
96 2 9.857077486358115 7.292809249778539 1.4323658310892697 0 0 0
136 1 11.40051567055844 7.770410660474773 0.3929923642091202 0 0 0
100 2 12.82555106870273 6.773018962947368 1.1691498348421099 0 0 0
104 2 16.11837569455768 6.481735380000287 1.4079781337127835 0 0 0
140 1 14.58741870733521 7.51575216517853 0.9030765053496669 0 0 0
144 1 17.850606540993983 7.346900574164383 1.0361281996062017 0 0 0
108 2 19.574198006376392 6.473611756062065 1.6417194858000634 0 0 0
148 1 21.01134943270508 7.5782256812750965 0.8366649282257654 0 0 0
112 2 22.798615897237095 6.8537411438485965 1.5671341928729483 0 0 0
152 1 24.053488490141913 8.23189085341899 0.7254317801312822 0 0 0
116 2 25.617838028198495 7.178453927604114 1.5366312782762954 0 0 0
118 1 29.04261127489 5.758219914640492 0.7384466372303121 0 0 0
120 2 28.735211936282585 7.509006914492948 1.5902069658599847 0 0 0
122 2 31.83127471935573 7.674777510043928 1.559968564243224 0 0 0
9801 1 31.792082304406144 5.88306820192808 0.8211475209554985 0 0 0
124 1 2.2294291774200747 8.790610661405456 0.3090794631292486 0 0 0
126 2 1.9587259055699573 10.688745373938662 0.9723234385798563 0 0 0
128 1 5.36065647069075 8.433286251115675 0.30037727213260074 0 0 0
130 2 5.199006152852845 10.335439574533758 1.0295853462866444 0 0 0
134 2 8.125444623620258 9.836837867070829 1.010145656192972 0 0 0
175 1 9.813574050360739 10.614503820611947 0.6934175682814249 0 0 0
138 2 11.264445709972824 9.466744964607916 1.3146695553951364 0 0 0
179 1 12.980882288541144 10.391853442932886 1.0120915800329404 0 0 0
142 2 14.546422928900366 9.35202811562249 1.5513907249661432 0 0 0
183 1 16.308259170842323 10.201054817302476 1.0944390156016714 0 0 0
146 2 17.835052550475073 9.166684488840774 1.725430765694676 0 0 0
150 2 20.947815854764613 9.366507186096728 1.7638821174850132 0 0 0
187 1 19.377566685372372 10.30623353586135 0.9382960851489798 0 0 0
154 2 23.944432116601444 9.946151638447304 1.6497539338248217 0 0 0
191 1 22.168869276941496 10.75241907083689 0.9515279657051865 0 0 0
156 1 26.941811073072152 8.442332292426514 0.802172846350778 0 0 0
158 2 26.85588697781503 10.249480208051756 1.7154562074898687 0 0 0
160 1 30.180844806197168 8.668751460567023 0.7754592382494402 0 0 0
161 2 30.06027295926607 10.289788535131526 1.8959485075768423 0 0 0
164 1 2.667662493959043 12.07832261866304 2.654834838261098 0 0 0
9604 2 2.006635223911957 46.718528915657 -0.055115705553149826 0 0 1
167 1 3.7115470572638087 11.230066844652542 0.20467747966082672 0 0 0
169 2 3.587951819360414 13.174651098732424 0.9673957585366804 0 0 0
171 1 6.795215341194717 10.775400291623658 -0.03424279537781786 0 0 0
173 2 6.807024550864633 12.576058464876304 0.8155331126733352 0 0 0
177 2 9.728431379428232 12.363929001838677 1.4068694072401022 0 0 0
217 1 11.406844568317844 13.181324400997736 0.8697956777820699 0 0 0
181 2 12.877149858199191 12.207882577778788 1.6461118561790384 0 0 0
185 2 16.374438025219444 12.052891222045716 1.7845658604319081 0 0 0
221 1 14.715723514628667 13.01330427701255 1.1448894050657068 0 0 0
225 1 17.874817540355675 13.119569235358249 0.9165177186702204 0 0 0
189 2 19.32853822086666 12.17008756311693 1.8439013952670746 0 0 0
193 2 22.166849598186445 12.522460867055756 1.7982099680817594 0 0 0
195 1 25.35092849956512 11.318156404264695 0.898697876092089 0 0 0
197 2 25.12395895800027 12.959429281303828 1.8582096031138455 0 0 0
199 1 28.504906458132794 11.369616048214 1.1294916183753092 0 0 0
201 2 28.33760111018016 13.099051667562849 2.0877566506709875 0 0 0
9881 1 31.669821660075172 11.31574956942432 1.268655037904496 0 0 0
203 2 31.77784493325777 13.185875125874933 1.9413398678760516 0 0 0
204 1 1.1152918005628567 15.050256503483654 2.3207848246054557 0 0 0
209 1 5.373342470926126 13.595032261774644 0.04591885966580731 0 0 0
211 2 5.28456560908209 15.309867348832135 0.7495637782141553 0 0 0
213 1 8.481325995067266 13.508950557188252 0.5007478011498672 0 0 0
215 2 8.34004798570067 15.198158894033865 1.255452339078914 0 0 0
219 2 11.416418077384714 15.02273365986076 1.384200789750044 0 0 0
260 1 13.246518794512847 15.823270436047508 1.017676244201151 0 0 0
223 2 14.788357329962658 14.838423220164453 1.8383645475605495 0 0 0
264 1 16.349792311901968 15.952954711099045 0.9209369683690756 0 0 0
227 2 17.76374265211876 14.856027864912912 1.8073604003202381 0 0 0
229 1 20.670469466539227 13.491740226381557 0.9716014705730152 0 0 0
231 2 20.63699268339232 15.144037080584742 1.870253921277395 0 0 0
233 1 23.44182697705466 13.786033899859822 0.9733105306575975 0 0 0
235 2 23.43524066266729 15.514211571855716 1.9778263952463249 0 0 0
237 1 26.697433517501555 14.108822706188398 1.2076729333109626 0 0 0
241 1 30.052418034114087 14.17060812315783 1.6546131779567435 0 0 0
207 2 2.210987262661171 16.06522776125886 0.67251517918642 0 0 0
250 2 3.90983418989234 18.186555387467546 0.6336853262471115 0 0 0
252 1 6.963687588269211 16.313960787193533 0.46806008336034055 0 0 0
254 2 6.955254438582753 18.102114386090246 1.1569590258045124 0 0 0
256 1 10.04330645984659 16.21013957917873 0.8860644633035221 0 0 0
258 2 10.284084640911782 17.864326899708868 1.8692394181627459 0 0 0
262 2 13.329011343057706 17.649410529144976 1.8178305940828863 0 0 0
266 2 16.2151006984979 17.74639438859646 1.8032241208747515 0 0 0
270 2 19.10192358356719 17.968194698994388 1.8911639388434254 0 0 0
268 1 19.0874436387002 16.223782730766946 0.9990222888977461 0 0 0
274 2 21.817573183851145 18.341074432126483 1.8836675053695535 0 0 0
272 1 21.89746995649013 16.577372449634883 1.1063917621863346 0 0 0
239 2 26.305525970627034 15.915374990638414 1.8288948108825087 0 0 0
276 1 24.678942088487172 16.925067802565092 1.1808446828054096 0 0 0
280 1 27.981404636325863 16.96565696678017 1.7961760477478554 0 0 0
4621 2 0.8922383697120893 39.62645293291853 30.819376414498635 0 0 0
9961 1 31.527660548647944 17.138211594809462 1.9561722494139862 0 0 0
18763 2 31.351227757446132 16.99774008093033 -0.01455462348780071 0 0 1
14481 1 31.96781454550656 52.419308502279875 28.684379802189092 0 0 0
288 2 2.324336496397845 21.069925773803213 0.7005346234608146 0 0 0
290 1 5.591905247337438 19.192560468219554 0.3055712945790508 0 0 0
292 2 5.457871898838692 20.948937507298872 1.1009588946563278 0 0 0
294 1 8.813392421728404 18.83050962491697 0.8998770046890433 0 0 0
296 2 8.761572316460867 20.684665915015557 1.723770535760375 0 0 0
298 1 11.87356317028455 18.96842597063734 1.0476223198209988 0 0 0
300 2 11.773528530352996 20.701129725516896 1.8936350313270403 0 0 0
302 1 14.677420191461364 18.932205360950782 0.9719337897330442 0 0 0
304 2 14.563014333496822 20.715042808723886 1.8845553473199113 0 0 0
306 1 17.5829239387542 19.018977733264386 1.0629394005204054 0 0 0
308 2 17.470182530988673 20.83050760697422 1.9660974355437257 0 0 0
310 1 20.299118541121643 19.402141791775076 1.0748004886860338 0 0 0
312 2 20.327262133706387 21.19166927250992 1.9365974193308086 0 0 0
314 1 23.154311351462376 19.6913173264175 1.1378870210938061 0 0 0
278 2 24.60195956087717 18.72058931858774 1.9041210404306281 0 0 0
318 1 26.291307751881643 19.80719071416528 1.7892731845424972 0 0 0
322 1 29.400559320710844 19.867659603034568 1.9651448699031209 0 0 0
9234 2 29.552787086299936 19.837009032245664 -0.0006839255431366177 0 0 1
3525 1 0.9173800605530147 21.25978961873911 23.393573916833855 0 0 0
329 1 3.9748508765646027 21.92937807898798 0.33673459724760024 0 0 0
331 2 3.77443415599275 23.694533214682444 1.0666302524710793 0 0 0
333 1 7.259480884858848 21.74068612995357 0.8707866229113511 0 0 0
335 2 7.022900644671797 23.568914297761133 1.4432474631270025 0 0 0
337 1 10.328890399168081 21.846371084803057 1.0925974545058832 0 0 0
339 2 10.142270127076175 23.54272081513324 1.9739332361525364 0 0 0
341 1 13.194302763002122 21.820234445514725 1.011769099373465 0 0 0
343 2 13.151092798481717 23.583264356881237 1.9427308162759553 0 0 0
345 1 15.969027190260485 21.942268864241598 1.1845749960776124 0 0 0
347 2 15.992978586442696 23.696043521031918 2.0450568317411237 0 0 0
349 1 18.789527202361 22.166347272783653 0.9573409914931088 0 0 0
353 1 21.536660338518026 22.58581766301825 1.0682897330177936 0 0 0
316 2 23.08768671791037 21.54184033593728 1.8474720514724265 0 0 0
357 1 24.651848188768806 22.771665415796345 1.7003642279083995 0 0 0
361 1 28.11933862560483 22.32853307509416 1.7986370872256743 0 0 0
10041 1 31.429277094739767 22.486203899658157 1.5795091693113426 0 0 0
323 2 30.050113656445074 21.70207388296986 2.717293555760113 0 0 0
367 1 2.4177803770772033 24.726689769264922 0.19845715023026014 0 0 0
371 1 5.4839150997808295 24.65936836665763 0.9675777835902009 0 0 0
375 1 8.664457327728618 24.527995077233264 1.1754568746760363 0 0 0
379 1 11.652014217768395 24.695982808238757 1.152970247685102 0 0 0
383 1 14.506657923681484 24.912908855523774 1.3059477296425956 0 0 0
351 2 18.892423887521048 23.84071218661513 1.9969234106033575 0 0 0
387 1 17.40340294388748 24.96253253703766 1.2638922373366805 0 0 0
391 1 20.22705361561112 25.12199402510644 1.1513404119109159 0 0 0
355 2 21.794278601107774 24.379996961841602 2.025514319583029 0 0 0
395 1 23.493149092837264 25.32617798758605 1.2798644752028692 0 0 0
359 2 25.275360699868813 24.686140607190893 1.8458953670206104 0 0 0
399 1 27.001797190804638 25.295238316215137 1.0983146664830679 0 0 0
363 2 28.699785907514435 24.313712927641838 2.116075963933437 0 0 0
403 1 30.34900007819693 25.02992983955364 1.2505907132589753 0 0 0
365 2 31.991779490019113 24.386324946089363 2.1569038466276944 0 0 0
369 2 2.1131982696879192 26.537835468947748 1.0660017036181522 0 0 0
373 2 5.2369710191001735 26.477884888751376 1.5718107965422254 0 0 0
410 1 3.8053798176872227 27.43546817883976 0.799994617421845 0 0 0
377 2 8.275326569971929 26.31893229832673 1.7247973292249381 0 0 0
414 1 6.867100354245786 27.389324215634087 1.1022827571879759 0 0 0
418 1 10.048491394486241 27.398475998874524 1.3329271553947029 0 0 0
381 2 11.578429259354003 26.448301752316613 2.088702681776118 0 0 0
422 1 13.268635445815308 27.51962171931803 1.3425603797392835 0 0 0
385 2 14.74671218685612 26.616343187685725 2.2071173622622395 0 0 0
426 1 16.15041599848228 27.75026776881266 1.2835645924657848 0 0 0
389 2 17.69253523474515 26.734107164081514 2.1089163056597915 0 0 0
430 1 19.20484463866147 27.747324797354942 1.2264501027092665 0 0 0
393 2 20.834343731010858 26.962837983743867 2.077356274332582 0 0 0
434 1 22.5004819797979 27.891699025977154 1.2193938138224438 0 0 0
397 2 24.288267747601278 27.105001125602318 1.8973988123055707 0 0 0
438 1 25.789290600055164 27.846331128318806 0.9066256506315625 0 0 0
442 1 29.107482429156356 27.753716807356177 0.8151302809122647 0 0 0
401 2 27.5199520667812 27.14960724327136 1.780518145118181 0 0 0
404 2 30.801980165392855 26.995455580769285 1.8025208394046273 0 0 0
448 1 2.0403958067684336 30.264203910752006 0.9280521975559182 0 0 0
412 2 3.6087188333881137 29.27211062425617 1.3951142004811083 0 0 0
452 1 5.22057850519827 30.20664210522415 1.0068538778045582 0 0 0
416 2 6.784001834220285 29.247843289707035 1.6239663011705452 0 0 0
456 1 8.568032055804771 30.109993378728156 1.322393491501846 0 0 0
420 2 10.12769069088931 29.218230322315737 2.1692699703255216 0 0 0
460 1 11.889760885286769 30.302670191514867 1.3690871906927986 0 0 0
424 2 13.329523401321957 29.290719793148508 2.1716221523341352 0 0 0
464 1 14.975312524796697 30.30947179404155 1.3694818363467103 0 0 0
428 2 16.785358338537296 29.586004838488495 1.8666170819141847 0 0 0
468 1 18.138073785152105 30.737533196072484 1.0236182933545714 0 0 0
432 2 19.80042094701601 29.739362987282774 1.8060347055508592 0 0 0
472 1 21.51387631308158 30.437828527245625 0.9491016410322526 0 0 0
436 2 23.182044418805333 29.693576869171466 1.8254302004083043 0 0 0
476 1 24.66416591529219 30.507291839522146 0.8365694682457989 0 0 0
440 2 26.411147992848157 29.785235083900563 1.6202576109061546 0 0 0
480 1 27.97530823022917 30.433672296641255 0.7393530924521384 0 0 0
444 2 29.68464281078267 29.524391536577568 1.5395290423634835 0 0 0
484 1 31.278109673451812 30.157635818103415 0.577250311926585 0 0 0
450 2 2.070056976044433 32.11141821155246 1.4508064393157856 0 0 0
491 1 3.6923568537515528 33.04789053727304 1.0144883621416254 0 0 0
454 2 5.216240662765884 32.039872609066116 1.645646112074937 0 0 0
495 1 6.979812304695527 33.019583981805795 1.214363702723327 0 0 0
458 2 8.655318714803418 31.962793334132325 2.0274247318713483 0 0 0
499 1 10.277670059237861 32.96349745456368 1.3126863234839894 0 0 0
503 1 13.768174327631062 33.27109725358254 1.4889962026385115 0 0 0
462 2 12.040361596184079 32.10431554245699 2.0448837572029124 0 0 0
466 2 15.456021888952545 32.21575948188328 1.7882566796015178 0 0 0
507 1 16.956661725315058 33.23241371526184 0.9533502166911821 0 0 0
470 2 18.707020704582035 32.58564861136962 1.7278197304148668 0 0 0
511 1 20.217297402336385 33.31152129370036 0.8913517291900439 0 0 0
474 2 21.918416238911508 32.418855382298766 1.6226087766490271 0 0 0
515 1 23.58285565093293 33.07027370474977 0.7477755634926961 0 0 0
478 2 25.25169453453229 32.35333481053038 1.5991915257445037 0 0 0
519 1 26.8466900663365 33.04363651038202 0.6774227713416965 0 0 0
482 2 28.55403498332602 32.26614645785669 1.4559110307499388 0 0 0
523 1 30.086429281655366 33.135822020494494 0.5742083904360122 0 0 0
485 2 31.715735147052524 32.06447141333021 1.1510254689726018 0 0 0
529 1 2.1183072368783056 35.6453987009048 1.350468667699012 0 0 0
493 2 3.6919772017009955 34.7836790240488 1.9385586600640188 0 0 0
533 1 5.62903656788172 35.463993870241566 1.688983620899791 0 0 0
497 2 7.564808263934546 34.90225389621101 1.7889460345611616 0 0 0
537 1 9.146334589217025 35.819478298721755 1.0055304120760884 0 0 0
501 2 10.460607119015922 34.76000353316786 2.06747425444975 0 0 0
541 1 11.979232871443863 35.991630672704034 1.3421935414510113 0 0 0
505 2 13.93597274107349 35.24905297016897 1.8894743434059955 0 0 0
545 1 15.486145388716833 36.056775633039734 1.0002078139401365 0 0 0
509 2 17.27690071644834 35.14142124857305 1.6501969415602098 0 0 0
549 1 18.94647139152051 35.85398983823216 0.8831461033245394 0 0 0
513 2 20.69922019173665 35.09849550531068 1.662620743619459 0 0 0
553 1 22.187904929846365 35.99858604508287 0.7543188871487628 0 0 0
517 2 23.795665537632434 34.947338031308306 1.452907613601029 0 0 0
557 1 25.061763787350223 35.897113320925 0.34441369329395954 0 0 0
521 2 26.703048094315335 35.09679404246951 0.8622390192282904 0 0 0
561 1 28.32486642827578 35.69783904884765 -0.09090197353041096 0 0 0
525 2 29.91528535871454 35.08927551028527 0.7197632829987418 0 0 0
562 1 30.371202040180954 36.15278173569077 2.4419456918489515 0 0 0
246 2 0.8786308110259569 18.847153731030602 0.8136849602758615 0 0 0
531 2 2.0214027844959848 37.371264107999906 2.257868227259274 0 0 0
572 1 3.8276616365825435 38.18058465483963 1.7123737151285963 0 0 0
535 2 5.438473914119755 37.30653598748837 2.3356292559413676 0 0 0
576 1 7.258363226382102 38.209845682857235 1.9037988918908186 0 0 0
3487 2 0.8536404397812115 17.386843081311966 24.14372136687908 0 0 0
539 2 9.280861467581943 37.48397913335454 2.022224866210374 0 0 0
580 1 10.806070409574762 38.496633200843306 1.344707154948034 0 0 0
543 2 12.649500584979238 37.92162108731453 2.026061403570774 0 0 0
584 1 14.240760975927262 38.85080625216314 1.1931864581557112 0 0 0
547 2 15.872175575645095 37.92680562076025 1.8403688669498586 0 0 0
588 1 17.437634781066855 38.78555980710637 0.967087417881278 0 0 0
551 2 18.94966881266859 37.680054097727954 1.9184891642081754 0 0 0
592 1 20.266670649140615 38.87708284910639 0.9549599180134164 0 0 0
555 2 21.783699935426576 37.890723418660905 1.5599410338210007 0 0 0
596 1 23.37026193725102 38.495076179655236 0.44553813543937965 0 0 0
600 1 26.378134705238484 38.22886758338579 0.1773698222072294 0 0 0
559 2 24.83449751003088 37.6003249383609 1.2543729142245033 0 0 0
563 2 27.95994665396484 37.45737925607748 1.0242590701637075 0 0 0
601 1 28.858875647467645 38.84192582890799 2.537365178001206 0 0 0
566 2 31.206446304810886 37.42348356460756 0.800379503667383 0 0 0
13723 2 32.04549379216835 54.06458080567292 29.66534984115311 0 -1 0
610 1 2.060739690508475 40.89448180876702 1.9709501335680943 0 0 0
9523 2 2.1883721760553296 41.00055211557415 0.020967457112001854 0 0 1
614 1 5.3174920374665 40.933555916217315 1.7383263673277212 0 0 0
4702 2 0.8237088437364122 44.96612752233441 30.970603205739632 0 0 0
578 2 6.962694828768764 40.09846811760584 2.2688542849645543 0 0 0
618 1 8.532508830017317 41.033059144620864 1.4427614304102707 0 0 0
582 2 10.139627105772416 40.19728210564812 1.987615229921792 0 0 0
586 2 13.616100112883668 40.5926750774843 1.954116248881978 0 0 0
622 1 11.827137790502496 41.110156858234326 1.4427706604275428 0 0 0
626 1 15.360362813584187 41.35655028091373 0.9181235557540529 0 0 0
590 2 17.018212319620112 40.622979059412195 1.7770707287687402 0 0 0
630 1 18.68299388727833 41.29479880453278 0.6907894965977699 0 0 0
594 2 20.412195257678572 40.78318666455302 1.2523290808937813 0 0 0
634 1 22.02249806646848 41.378868990592 0.318318606028363 0 0 0
598 2 23.319995873471555 40.33982698783204 1.2859444057293616 0 0 0
638 1 24.869619072336352 40.92129499192894 0.15425764028138064 0 0 0
602 2 26.333622635394214 40.08256896598008 1.002065819340934 0 0 0
639 1 27.3417989750898 41.62214023501894 2.36681522955222 0 0 0
3444 1 0.9028894102526186 15.613111859941629 23.303473178112903 0 0 0
606 2 29.53072601489549 39.993717553447844 0.8448754051319307 0 0 0
643 1 30.42337017357969 41.60355982737001 2.1894995175065493 0 0 0
653 1 3.5192735972381377 43.54139731937328 1.9462543131138068 0 0 0
616 2 5.3093451230065964 42.805022443767 2.301198242955221 0 0 0
9566 2 3.539308657861767 43.857844604954785 -0.007703064103684225 0 0 1
620 2 8.480737563945054 42.83862671737507 2.073749399548366 0 0 0
657 1 6.882381369823363 43.75522776976467 1.6914779519239937 0 0 0
661 1 10.045756885874 43.70615987568084 1.4310732304737406 0 0 0
624 2 11.706772134518253 42.85785983408406 1.9747199214375153 0 0 0
665 1 13.308934693713438 43.69574792552636 1.1061578854838965 0 0 0
628 2 15.034711139669572 43.14097358346461 1.8310098235606236 0 0 0
669 1 16.723653239985804 43.76737716378512 0.7265515125755712 0 0 0
632 2 18.36353956094632 43.10726333381698 1.5282289204686212 0 0 0
673 1 20.027872378311052 43.76008826288954 0.4626776749663458 0 0 0
636 2 21.778456153090506 43.15672679940454 1.255930922173312 0 0 0
677 1 23.305889054176223 43.80018346699682 0.01588097635747503 0 0 0
640 2 24.76098808833449 42.79760069280038 0.9090026627511539 0 0 0
644 2 27.83952936748289 42.25694680170487 0.49024868732879523 0 0 0
647 2 30.88189145737403 42.26924187660695 0.3475633245912095 0 0 0
691 1 1.8822223108851532 46.53211348363054 1.8538311312941576 0 0 0
695 1 5.0766199871853095 46.31655132808867 1.6712094623104596 0 0 0
3810 2 0.917816655403252 40.38194115673776 23.365166502111947 0 0 0
659 2 6.774999460587848 45.557529215586456 2.329549824971612 0 0 0
699 1 8.36112258483382 46.51436925515055 1.540695519161143 0 0 0
663 2 10.020079906891326 45.59370034956161 2.0893372348955976 0 0 0
667 2 13.157897310087336 45.5434342482455 1.652498959463302 0 0 0
703 1 11.577603066677574 46.40639842723487 1.2642512421262189 0 0 0
707 1 15.008019773484682 46.39730967049905 1.0274254372417229 0 0 0
671 2 16.77339035585794 45.679276963182225 1.5043734211515216 0 0 0
711 1 18.402608107908414 46.37130109190055 0.5564993500416002 0 0 0
675 2 19.998080307213915 45.590747852013806 1.2666903165944858 0 0 0
715 1 21.516616395751186 46.09380647878151 0.11422656429418082 0 0 0
679 2 23.255460350514586 45.621396912160264 0.8711330323627481 0 0 0
678 1 25.8094883573642 44.46960937804156 2.2901693648507315 0 0 0
683 2 26.2418338612182 45.077345659704875 0.38574687324935536 0 0 0
687 2 29.05324956823791 45.011523826359856 0.3608150382700136 0 0 0
682 1 28.92863389667595 44.63437077583538 2.2267436414406787 0 0 0
4855 1 29.13816213040431 52.3158838721373 28.922131478051593 0 0 0
686 1 31.721041012876825 44.77103078114978 2.174888407621499 0 0 0
693 2 1.8618239776568561 48.360320659527574 2.3491505944502284 0 0 0
697 2 5.028569162655964 48.2134942341945 2.276663043968966 0 0 0
734 1 3.4860677117895347 49.198021280591284 1.6086580690113994 0 0 0
701 2 8.278532112495002 48.335119259578285 2.1039024280856298 0 0 0
738 1 6.617548328513793 49.05905260743305 1.625846365653133 0 0 0
742 1 9.827613596511588 48.905450891878665 1.1389579857274441 0 0 0
705 2 11.555222917215106 48.20065843689593 1.8763518972493667 0 0 0
746 1 13.270044761767657 49.107040180925814 1.2198562267245314 0 0 0
709 2 15.011383965993952 48.27680670978658 1.6457916132336168 0 0 0
750 1 16.62743681786726 48.697899740609955 0.4938859181931448 0 0 0
713 2 18.31967321023129 48.21274282040679 1.3354658253519378 0 0 0
717 2 21.48147898143295 47.90905113632601 0.7571154557075864 0 0 0
754 1 19.887318708484145 48.65865314191507 0.03200455624738312 0 0 0
716 1 24.20973404795066 47.28367636716984 2.331365929879959 0 0 0
758 1 23.070739039493574 48.82799076247436 0.10049288798488855 0 0 0
721 2 24.738149380104673 47.90549187560995 0.44975110443955557 0 0 0
2188 1 0.8674881361057207 38.86218654543315 12.153277407244424 0 0 0
725 2 27.672502947395966 47.598076160046695 0.48172263420853084 0 0 0
14321 1 31.9981066056069 41.3154047388363 28.57677247549886 0 0 0
728 2 30.694365788851435 47.86465734455074 0.549783287258748 0 0 0
772 1 1.9723274216477564 52.01722135982611 1.4426384925768412 0 0 0
736 2 3.5249264592418643 51.06526111470391 2.141677557057177 0 0 0
776 1 5.173106213307553 51.82974602924573 1.4471382808301727 0 0 0
740 2 6.725717791375459 50.92398957785952 2.0727053541410276 0 0 0
780 1 8.3295405710171 51.77095182189101 1.4731803478487642 0 0 0
744 2 9.92825945332071 50.683908361803574 1.971831560672728 0 0 0
748 2 13.333726647964657 50.98653531919265 1.8420156897190414 0 0 0
784 1 11.569942753107336 51.71695793557834 1.3433825169243618 0 0 0
788 1 14.80130822624379 51.52756602633448 0.5850409470589231 0 0 0
752 2 16.34809554341238 50.54264027641468 1.1344995008843561 0 0 0
792 1 17.9253082046292 51.175585479119604 0.14004015510954268 0 0 0
756 2 19.641991001803095 50.4111019705142 0.7552962769870339 0 0 0
796 1 21.18286309644547 51.4309539169416 0.16745171326026564 0 0 0
760 2 22.8603362219745 50.598923435078916 0.7859918443576762 0 0 0
764 2 25.99366411455024 50.4703857459094 0.7515249692270433 0 0 0
800 1 24.472157445000235 51.49505597847928 0.2554434434751037 0 0 0
768 2 29.164383738043956 50.38397517791509 0.6132159533667176 0 0 0
804 1 27.58877066923375 51.48186270887933 0.182174905466007 0 0 0
808 1 30.866517200086594 51.30680076007823 0.2714540068269598 0 0 0
774 2 1.860802573078911 53.980237926801266 1.8342161141559032 0 0 0
778 2 5.179728125605115 53.70910122945863 1.845177814513707 0 0 0
782 2 8.49426798606447 53.75841269753291 1.928048518726465 0 0 0
13 1 10.128550852005432 54.590768546645855 0.9214310239849669 0 -1 0
17 1 13.295181187364104 54.330081144325156 0.7173330773869877 0 -1 0
786 2 11.607437372639946 53.70214690320106 1.8527553515502588 0 0 0
790 2 14.854738689026785 53.37591003496203 1.3661890847307534 0 0 0
21 1 16.46966718487465 53.814257937022724 0.37164523406944033 0 -1 0
794 2 18.02716141409043 52.90316101108761 1.0314935085519539 0 0 0
798 2 21.165925298912526 53.10990177563596 0.9308406976852179 0 0 0
25 1 19.608176332522095 53.83929403089248 0.2360297139557949 0 -1 0
29 1 22.88380635282835 53.86942377440129 0.2321833370273975 0 -1 0
802 2 24.47755285794546 53.262785812107595 0.9319110474832775 0 0 0
33 1 26.04596259324789 54.253963465172085 0.3662286668034178 0 -1 0
806 2 27.59360144367649 53.215255028718666 0.842442694695862 0 0 0
37 1 29.302996488701723 54.123616472939226 0.43011920227853917 0 -1 0
809 2 30.975662645952944 53.18078243260325 1.1476623988376842 0 0 0
2 1 3.113693140688162 1.8076423606748944 3.6657395383700053 0 0 0
4 2 1.4915728844292795 1.1064701523549263 4.406712332954897 0 0 0
8 2 4.664141599093924 0.9676510105412827 4.496387454283861 0 0 0
6 1 6.34343425087015 1.576330284690448 3.6500511653916115 0 0 0
12 2 7.869654965179355 0.6685863646042643 4.404952027637238 0 0 0
10 1 9.502643348350091 1.1837216447909222 3.412475777857994 0 0 0
16 2 11.017439516795424 54.743300790890025 4.310307892141535 0 -1 0
14 1 12.692395154287183 0.955600007930799 3.289142166199192 0 0 0
58 2 12.456704283579601 2.7883650543062415 4.005680188598529 0 0 0
18 1 15.9278542895352 0.8122725575141397 3.012086105828083 0 0 0
62 2 15.790369207193068 2.6352886110614455 3.7150176641715142 0 0 0
66 2 18.785241181390163 2.579530957783316 4.018759091213142 0 0 0
22 1 19.158219506717824 1.031797295237669 3.0130363202415893 0 0 0
70 2 21.874119335014147 2.6736858472850775 3.958117945605573 0 0 0
26 1 22.214234914387394 1.0165600959226804 2.9342471752220516 0 0 0
30 1 25.11138711784534 1.2309902990258925 3.0882325573488925 0 0 0
74 2 24.64877935019786 2.9831288364406854 3.8074173867927055 0 0 0
34 1 27.92491978919302 1.5249624568404003 2.881388809547487 0 0 0
78 2 27.580776640846903 3.215087877212549 3.7402316180427673 0 0 0
40 2 29.451617314598806 54.69899478698651 3.706710134697228 0 -1 0
38 1 30.87381339350167 1.5259050848799418 2.963994333249099 0 0 0
46 2 2.854410116756138 3.7088890898656075 4.222685238681641 0 0 0
42 1 1.3118993605110425 4.441264328978686 3.258398770314312 0 0 0
44 1 4.536078726899978 4.213625080212274 3.2973850133816853 0 0 0
50 2 6.045971512809934 3.426886031390213 4.173677631386225 0 0 0
48 1 7.771120108985797 3.89410896201819 3.351470874036689 0 0 0
54 2 9.213710471889385 3.0317478089832304 4.164909945193457 0 0 0
52 1 10.874670087649887 3.602000087105333 3.1898358034413956 0 0 0
97 2 10.71981654817531 5.4307022455954375 3.8599961268762155 0 0 0
101 2 13.922075733218614 5.304866666486415 3.6729926642073205 0 0 0
56 1 14.101143558987376 3.458318753763642 3.0124906866714984 0 0 0
60 1 17.379758325125515 3.726618877496878 3.163551990155607 0 0 0
105 2 16.991657744550757 5.364193114654762 3.9861862336269436 0 0 0
64 1 20.21791072056187 3.671486371499554 3.4043571234428383 0 0 0
109 2 20.0296253041292 5.410191980891798 4.227733173875063 0 0 0
68 1 23.104316884696193 3.989279146177443 3.0729683552744915 0 0 0
113 2 22.887191791696782 5.6668649391345465 3.979551865129364 0 0 0
72 1 26.030643189041413 4.224710947586092 3.018835931541426 0 0 0
76 1 28.92361646197554 4.435637862284641 3.08981778582333 0 0 0
81 2 30.547131018996637 3.292350996800285 3.8382816500131653 0 0 0
9761 1 31.787463589340764 4.614677229385503 3.1099495301921585 0 0 0
83 1 2.852794345364007 6.8184852443466015 2.9526315823031144 0 0 0
85 2 1.0632414891290058 6.2993335411675275 3.889508803359582 0 0 0
89 2 4.376632598880913 6.101414719286505 3.8701240781349795 0 0 0
87 1 5.987193301742292 6.663138030248826 2.9171792148236246 0 0 0