LAMMPS data file via write_data, version 22 Jul 2025, timestep = 20000, units = metal

28800 atoms
2 atom types

0.6253359076399381 95.04466409236458 xlo xhi
0.23004370678372693 55.00505630521556 ylo yhi
0.04698362942298601 62.176784370577245 zlo zhi

Masses

1 69.723
2 14.007

Atoms # atomic

43 1 1.9648758628987852 2.5274744175415456 1.110829196825462 0 0 0
7 2 3.5078337733040583 1.725487379444278 1.8123294175880094 0 0 0
47 1 5.222661916286894 2.4715037384593774 1.089002675634874 0 0 0
11 2 6.82425556341135 1.4842091944795808 1.7466938401711245 0 0 0
51 1 8.398134484161744 2.283311603640241 1.062311544813823 0 0 0
15 2 9.97631928636444 1.3894432990405252 1.6634995526854202 0 0 0
55 1 11.595512444509266 2.275396812410587 1.011825378839883 0 0 0
19 2 13.108989409271153 1.22553118450849 1.6236351417175305 0 0 0
59 1 14.741018258575576 2.1628890628475643 1.1490016146471278 0 0 0
23 2 16.216585768744395 1.1719329327535932 1.7311309093853007 0 0 0
63 1 17.74805519744511 2.2005510860661426 1.2410152280572198 0 0 0
27 2 19.348876219711237 1.2814492393065011 1.8772441399875521 0 0 0
67 1 20.927741598100184 2.053686216783813 1.1631285707131167 0 0 0
31 2 22.499800560629744 1.1449796990450891 1.7683553727822159 0 0 0
71 1 24.05617657011144 1.940456887534197 0.9653495734203361 0 0 0
35 2 25.753606987945034 1.165577486170613 1.3935174952965952 0 0 0
39 2 28.97635215675477 1.5167067911982182 1.204762651640789 0 0 0
75 1 27.275161844790098 2.357051117188238 0.9016418285032641 0 0 0
79 1 30.536824637139418 2.5560053999457777 0.7158212644119905 0 0 0
45 2 1.7979289014020303 4.432209364312853 1.3990077558967924 0 0 0
49 2 5.024708901868937 4.31451966764948 1.486009139420865 0 0 0
86 1 3.524259359315278 5.222290850525727 0.6969367553875117 0 0 0
53 2 8.283895914637034 4.181746588122484 1.6072613836019296 0 0 0
90 1 6.669613950028544 4.9907845120928656 0.8732377002212532 0 0 0
94 1 9.93583048357854 5.080202227264608 1.016155713944685 0 0 0
57 2 11.500439137494276 4.122611525810614 1.616963869550713 0 0 0
98 1 13.12104874607075 5.0422549175326985 0.9888642579353704 0 0 0
61 2 14.365828806436678 3.9001606805790496 1.8035896738874715 0 0 0
102 1 15.945489631398885 4.811499907972057 1.3261322231486248 0 0 0
65 2 17.4458228470464 3.9099358609246946 2.1102841350813586 0 0 0
106 1 19.100662182918327 4.676217764946418 1.638508606686421 0 0 0
69 2 20.700411442410548 3.7377782462770845 2.0566492649958286 0 0 0
110 1 22.234103214730865 4.586554232240293 1.3303329490448903 0 0 0
73 2 23.99134691035504 3.7446036142212713 1.6867882074355243 0 0 0
114 1 25.497742449134165 4.878115529065111 1.080604644127361 0 0 0
77 2 27.16380168357569 4.1027974180522255 1.6956071482739101 0 0 0
118 1 28.689156726189587 5.246682581384188 1.0168896931414908 0 0 0
80 2 30.308844577359984 4.29972895017103 1.557803100628659 0 0 0
9801 1 31.888518971871676 5.4192759512526605 1.1047619917642608 0 0 0
124 1 1.861360307717802 7.954732177085734 0.563994413241914 0 0 0
88 2 3.4531727504092204 7.047951336406715 1.1729266508897853 0 0 0
128 1 5.172011299292476 7.885281683743066 0.682065789723374 0 0 0
92 2 6.6587090167217795 6.929707102970597 1.3585424550902068 0 0 0
132 1 8.244102670002672 7.851515517909124 0.8220903932187114 0 0 0
96 2 9.801170958994978 6.8884377582533025 1.487677939072623 0 0 0
136 1 11.435517937849188 7.778646296449525 0.9924014209202758 0 0 0
100 2 12.797873504613543 6.73508720463837 1.791710013282572 0 0 0
104 2 16.060662366414014 6.580381871840795 2.1095198056980773 0 0 0
140 1 14.579202657726137 7.468314960335862 1.2649527604321817 0 0 0
144 1 17.644873659016348 7.480516226544052 1.5033253512016345 0 0 0
108 2 19.02126318210287 6.418493911085419 2.357963493408007 0 0 0
148 1 20.477120877959692 7.455419355083731 1.7132981006490373 0 0 0
112 2 22.190371742565084 6.469376089024437 1.9472047076048646 0 0 0
152 1 23.77235619999808 7.512005476923875 1.4047116333613023 0 0 0
116 2 25.457397484915802 6.712311233472895 1.8125735327608175 0 0 0
156 1 26.865949368859276 7.960411917760947 1.2327290097752637 0 0 0
120 2 28.548639717291906 7.09111943223382 1.6813981663064916 0 0 0
122 2 32.00343961637096 7.207833449967354 2.029232567827148 0 0 0
126 2 1.845552838240243 9.83091657984915 1.0211030655652473 0 0 0
130 2 5.02365451543799 9.792462175201267 1.1164202111708168 0 0 0
134 2 8.17008877498913 9.744459673815227 1.1573545072405504 0 0 0
175 1 9.84072452815514 10.616928246790472 0.9223752758754098 0 0 0
138 2 11.226034562581075 9.546553985220429 1.705134797689814 0 0 0
179 1 12.965905398413188 10.1786781158642 1.2108763715206834 0 0 0
142 2 14.286207342367904 9.166467439013944 2.0977034612766636 0 0 0
183 1 15.836057265502356 10.152463123168978 1.65425788930642 0 0 0
146 2 17.416859940026313 9.204214519496743 2.308277683720374 0 0 0
187 1 19.00886051071278 10.261255269239074 1.9655388452077616 0 0 0
150 2 20.551854689960777 9.268918161523057 2.4053221293131317 0 0 0
191 1 22.078551948756925 10.256686617345034 1.6116009713336084 0 0 0
154 2 23.73435542150289 9.338231466495323 1.9945708303657996 0 0 0
195 1 25.22089188870816 10.5581100773407 1.4163495231745458 0 0 0
158 2 26.815326372186803 9.700686948601021 2.070546838038623 0 0 0
199 1 28.7471988145966 10.597363977439652 1.918562912579969 0 0 0
160 1 30.186666912654367 8.2216985645133 1.3545841146531619 0 0 0
161 2 30.75738108227963 10.04032469645517 2.0495744629342516 0 0 0
167 1 3.464204603790852 10.730662172507957 0.42220911396470817 0 0 0
169 2 3.4372399991776255 12.623799552882998 0.9642109184828905 0 0 0
171 1 6.5657729814951855 10.730123759091853 0.4727191051203219 0 0 0
173 2 6.524750333310034 12.527684088724046 1.1385274338329698 0 0 0
177 2 9.566186193683027 12.3870976817147 1.6394523955381073 0 0 0
181 2 12.85060846377932 12.051755203784849 1.9555145941168837 0 0 0
217 1 11.314290034980734 13.077451882616229 1.1514360608889693 0 0 0
185 2 15.782855034251586 11.968907706371402 2.3317438431810906 0 0 0
221 1 14.41134784892467 13.040926932964522 1.4627810134125805 0 0 0
189 2 18.81325682931336 12.164814633201013 2.2889251097602066 0 0 0
225 1 17.181983456849125 13.122576737812892 1.8688837429033944 0 0 0
229 1 20.36424158254279 13.071957257545455 1.6889968497151069 0 0 0
193 2 22.00348584855292 12.177430606112816 2.166152687533593 0 0 0
197 2 25.198768338103314 12.388478253113073 2.0893905422338035 0 0 0
201 2 28.672263024903835 12.445104880731405 2.6374994361915007 0 0 0
207 2 2.0809369751336315 15.766774074019123 0.4286809574448193 0 0 0
204 1 1.482032127233758 15.4341232678175 2.247353909919609 0 0 0
209 1 5.07923585032156 13.507691419339283 0.34346232649484654 0 0 0
211 2 5.1192808072588045 15.346062131952007 1.1074639266155575 0 0 0
213 1 8.200578822004807 13.440862464628916 0.7247488616797908 0 0 0
215 2 8.256040408778462 15.207908766648199 1.6094944591041283 0 0 0
219 2 11.286658525715259 14.843371650127443 1.9336331825202389 0 0 0
223 2 14.220045842812777 14.729538693899231 2.29058126447007 0 0 0
227 2 17.213424864578208 14.985048812694487 2.4502669684588994 0 0 0
4416 1 0.6422152350634605 26.88775754955057 29.25451787546026 0 0 0
231 2 20.40603339344124 14.929914716836791 2.3195859547262194 0 0 0
233 1 23.559507589232936 13.290778133433301 1.6331026525529622 0 0 0
235 2 23.44842610952204 15.200022583305646 2.186122217652026 0 0 0
239 2 26.752032848286156 15.265415658335918 2.358138001095146 0 0 0
237 1 26.914436412865726 13.318163457275267 1.8251970432315443 0 0 0
241 1 30.313669863157493 13.521589732380823 1.9304846797715016 0 0 0
248 1 3.9201481937524 16.49826448292879 0.13713583190446477 0 0 0
250 2 3.770219465352202 18.322927070942896 0.8005183992782068 0 0 0
252 1 6.833733540869731 16.23243119404247 0.7846978176490751 0 0 0
254 2 6.580706576340068 18.014205323008706 1.5472757280805123 0 0 0
256 1 9.949388494785904 16.04671658346875 1.2159352947292419 0 0 0
258 2 9.678155735217914 17.75622808847646 2.0582461980748357 0 0 0
260 1 12.886289154400917 15.82710471156521 1.4518746989552442 0 0 0
262 2 12.724578324243511 17.638823245344394 2.191624729147307 0 0 0
264 1 15.700205982994726 15.889738395506152 1.9608117899117343 0 0 0
266 2 15.648883363336815 17.835348572100386 2.3115797861544345 0 0 0
4216 2 0.6633076688963797 12.10568059892944 28.914267018625356 0 0 0
268 1 18.823319319531443 15.844118833658424 1.8029784746501536 0 0 0
270 2 18.801173053750524 17.71977089876515 2.2831323368846244 0 0 0
272 1 21.77359676260734 16.09527936205668 1.7272554321777984 0 0 0
274 2 21.879243569610686 17.991836624379676 2.089392614020678 0 0 0
276 1 25.12284538676876 16.1543381242097 1.7220378440992556 0 0 0
278 2 25.03115061163699 17.984700299266375 2.304884100859066 0 0 0
280 1 28.476245995331006 16.220341201211458 1.9204738937341248 0 0 0
282 2 28.276772912580796 18.166430823702367 2.550625004993019 0 0 0
284 2 31.41575017127203 18.204768728724545 2.5343953589492525 0 0 0
9961 1 32.08810771132915 16.369603473861915 1.8798477706495091 0 0 0
4173 1 0.6614384456720472 10.114548842323554 28.261645515597266 0 0 0
290 1 5.499412698868044 19.1784425254265 0.514376798840097 0 0 0
292 2 5.248005531761617 20.960198699026392 1.3403055334504277 0 0 0
296 2 8.203966351228566 20.57415594152452 1.9296453831577254 0 0 0
294 1 8.231842261118793 18.809958514353347 1.1735530262044198 0 0 0
300 2 11.173996311797602 20.4165860862013 2.1762445704675843 0 0 0
298 1 11.254861532601108 18.653514936821026 1.3651287963686363 0 0 0
302 1 14.073829950338096 18.771342081486427 1.6909014966128513 0 0 0
304 2 14.22649666769065 20.559725162204476 2.29693211571402 0 0 0
306 1 17.319574988649457 18.799504980431365 1.7892845713814511 0 0 0
308 2 17.236390197906182 20.59546634930605 2.301900369955328 0 0 0
310 1 20.232688936410106 18.855367761412165 1.5748837273305327 0 0 0
312 2 20.23296181688024 20.702215127245225 2.149466583573407 0 0 0
314 1 23.489054659077738 19.106844281690474 1.6558331165003686 0 0 0
316 2 23.48323940338132 21.019957292737278 2.2791127942115392 0 0 0
318 1 26.72266139732742 19.14442558739448 1.9687086910177216 0 0 0
322 1 29.865270401798618 19.26737589854505 2.065548071781765 0 0 0
9234 2 29.813940823757854 19.05321588780922 0.11754190779133658 0 0 1
288 2 2.211491244364647 21.073448199285117 0.7903836229473522 0 0 0
329 1 3.8681031839424618 22.035532713582626 0.44541458031692494 0 0 0
333 1 6.987736742647781 21.796842013826133 0.9793147979334622 0 0 0
335 2 6.720118255086883 23.516260614038853 1.9196111322357825 0 0 0
337 1 9.810770503151174 21.56763909456196 1.3395199727023057 0 0 0
339 2 9.649445341049557 23.232685137361102 2.2863083348327926 0 0 0
341 1 12.663694650465247 21.496096731648166 1.5241158093400589 0 0 0
343 2 12.715009288206666 23.286107474483515 2.2565025136573302 0 0 0
345 1 15.818630395947848 21.55733641994808 1.5769945357165005 0 0 0
347 2 15.906808646855923 23.41505175935838 2.2143157617921454 0 0 0
349 1 18.621877147571773 21.64534268784548 1.494151082237543 0 0 0
351 2 18.92124682343313 23.38698421618648 2.007473460557643 0 0 0
353 1 21.82066698238195 21.801877230468236 1.6304718498679582 0 0 0
357 1 25.226158275068656 22.20992303652205 2.0174127908933452 0 0 0
361 1 28.63992405306343 21.918981146794813 2.023934461691168 0 0 0
367 1 2.081057214987556 24.863608015781445 0.5811209131778783 0 0 0
331 2 3.4525129507080914 23.703038822857632 1.3572468018975257 0 0 0
371 1 5.267301111311658 24.453957939449285 1.0933688072400607 0 0 0
375 1 8.316972738588346 24.357445678433958 1.4606627409649273 0 0 0
377 2 8.24180013681574 26.21641114703106 2.1607276829633255 0 0 0
379 1 11.141349338964323 24.30770071934876 1.7210338235547162 0 0 0
381 2 11.14871059831363 26.156112094993368 2.3219488164400706 0 0 0
383 1 14.273261755138217 24.339105712274016 1.7429310961659668 0 0 0
385 2 14.55720878599545 26.153649779950744 2.3013921543582603 0 0 0
387 1 17.419323059229527 24.354595003775927 1.4684710992150531 0 0 0
389 2 18.007613666367646 26.05596010317573 2.4940176607167612 0 0 0
391 1 20.552092647775453 24.25570076579471 1.3920770855712368 0 0 0
393 2 21.085733984437 26.035616452340456 2.1218834617333076 0 0 0
355 2 22.223600633471477 23.689363577434897 2.37692743533733 0 0 0
395 1 23.90830337328474 24.572272238302553 1.5277263519042656 0 0 0
359 2 25.771243655121225 24.22273922372766 2.1321914297066695 0 0 0
399 1 27.512018588259572 24.82269839148242 1.4152346090204528 0 0 0
363 2 29.18212223286227 23.950201472773422 2.3007031892164966 0 0 0
403 1 30.720282383737043 24.723011154903325 1.4073966343679853 0 0 0
13723 2 31.557598321730637 54.20601920632261 29.659032537939567 0 -1 0
369 2 2.008487813398112 26.525340945448775 1.5022925943286707 0 0 0
373 2 5.188921617083634 26.31565026353382 1.822426500711225 0 0 0
410 1 3.717581767029742 27.514408806318716 1.2786109156279848 0 0 0
414 1 6.852743531710636 27.39763232542197 1.5635816715510755 0 0 0
418 1 9.712381111288565 27.26979074803144 1.6159701340061887 0 0 0
422 1 12.835521912316004 27.16366809263508 1.9049804824575263 0 0 0
426 1 16.313228588586583 26.93380660791373 1.762698765024301 0 0 0
428 2 17.07558756333809 28.663877023912097 2.2520107710999264 0 0 0
430 1 19.52657883961446 27.044481277016075 1.3670270908091418 0 0 0
434 1 22.74179929669485 26.98539539282451 1.3219047626601486 0 0 0
436 2 23.606100173308377 28.771762921380887 1.745015419792 0 0 0
397 2 24.816971358262045 26.568707650824372 2.0656901499945075 0 0 0
438 1 26.304781688028697 27.396387037764285 1.074825637317008 0 0 0
401 2 28.008381352107385 26.693446977507808 1.979631779377938 0 0 0
442 1 29.59230473154321 27.266351893686654 1.0136929100959104 0 0 0
404 2 31.187746751712417 26.631665005864843 1.9556540421094202 0 0 0
448 1 1.9318179686321417 30.164512027294577 1.135969520313572 0 0 0
412 2 3.58664218142484 29.423512254558947 1.7812491502506826 0 0 0
452 1 5.298206316927348 30.302404231809376 1.3166186078323316 0 0 0
416 2 6.804160941375486 29.331377038512507 2.0550741573997455 0 0 0
456 1 8.457988698349613 30.18779747053098 1.434892032427312 0 0 0
420 2 9.9384046641274 29.184528953960303 2.1099241791152905 0 0 0
460 1 11.70399466694947 30.017624714583906 1.7163227963979624 0 0 0
424 2 13.257332620137882 29.048056889509944 2.3640891260737145 0 0 0
464 1 15.263404253674508 29.509368966622134 2.0605685169300885 0 0 0
468 1 18.550254775754162 29.69797706759032 1.3481387305309211 0 0 0
432 2 20.295376060419265 28.847844712554817 1.9053269689610657 0 0 0
470 2 19.006549599352773 31.44448785427706 1.9778946043327592 0 0 0
472 1 21.92380111042133 29.674007755099005 1.2555546243329136 0 0 0
474 2 22.287293637641028 31.497307441182496 1.798313196361925 0 0 0
476 1 25.06012613447203 29.860084296524988 0.9252825390057758 0 0 0
440 2 26.837313719239418 29.34519970740955 1.864270786585656 0 0 0
480 1 28.31791128352809 30.172546908943733 0.848999023915547 0 0 0
444 2 29.91317522913031 29.258275417437286 1.6531833702712417 0 0 0
484 1 31.472511720835847 29.901897979483216 0.8004590323508165 0 0 0
450 2 1.8982817936860512 32.021118910389184 1.7892007559966103 0 0 0
491 1 3.5694414095115374 32.97271742849238 1.5984047242132187 0 0 0
454 2 5.212214922290795 32.03243823006116 2.2020134694955726 0 0 0
495 1 6.846796151837138 32.74074664204869 1.4621725237725918 0 0 0
458 2 8.549571443524009 31.99053270180089 2.0855397171446746 0 0 0
499 1 10.299591776035669 32.834423391844325 1.5326675908551075 0 0 0
462 2 11.92808614013874 31.938837404808964 2.176489157802309 0 0 0
466 2 15.672153478721025 31.401827581658306 2.2499534102661287 0 0 0
503 1 13.94660138503528 32.42083876386163 1.9779123723121255 0 0 0
507 1 17.34762645021712 32.25266165172318 1.505519067500281 0 0 0
511 1 20.598145719933477 32.24958107119406 1.208910574273751 0 0 0
515 1 23.762883038482585 32.33794951425587 0.9127841998298838 0 0 0
478 2 25.601206475670438 31.848763444722525 1.6807683260671558 0 0 0
519 1 27.11961951129519 32.72840987046292 0.7302143156615678 0 0 0
482 2 28.712836112229795 32.00661254725517 1.6068367729673543 0 0 0
523 1 30.09205510631709 32.742079275774564 0.5686538654185397 0 0 0
485 2 31.806378058797456 31.839577563908946 1.3570972860665729 0 0 0
529 1 1.954436466306458 35.742542895758824 1.9674559935461113 0 0 0
493 2 3.5982575660637814 34.78673863942951 2.408187989099834 0 0 0
533 1 5.298208303041043 35.653232359856545 1.7719986159334096 0 0 0
497 2 7.059760083614027 34.60390499765388 2.254477043330561 0 0 0
537 1 8.640434637641087 35.54213043287483 1.6681595131653042 0 0 0
501 2 10.290865188094319 34.59586515244455 2.304528744226769 0 0 0
541 1 12.251079752385804 35.236793883934595 2.0139322863194 0 0 0
505 2 14.290285658867726 34.433007735393076 2.316584935832381 0 0 0
545 1 15.93102221609764 35.1859575853627 1.474357977732495 0 0 0
509 2 17.538873248779787 34.17695719940367 2.037801415524627 0 0 0
513 2 20.70757255048634 34.12912415842295 1.8529442391356281 0 0 0
549 1 19.05529865289366 35.09196763760956 1.2930637033878447 0 0 0
553 1 22.1795556129484 35.13661558271603 1.0176643310845872 0 0 0
517 2 23.839945733735497 34.19950214902478 1.4720173618972656 0 0 0
557 1 25.08004920933677 35.2654813813809 0.5660877014732507 0 0 0
521 2 26.845193075057118 34.73399122168155 1.0244568397848024 0 0 0
561 1 28.315322933719827 35.464278593473544 0.13434909611710208 0 0 0
525 2 29.937387615286525 34.6803473511895 0.8933476025989102 0 0 0
562 1 30.497339813713076 35.98946257692715 2.4836457582275466 0 0 0
9485 2 3.3408087061473144 38.30802811560885 0.05639689909387973 0 0 1
572 1 3.661502011899203 38.37814500980843 1.9654568281864293 0 0 0
535 2 5.335653165970987 37.43104946060157 2.5196619625995376 0 0 0
576 1 7.01374381066664 38.370770002651355 1.919638544518372 0 0 0
539 2 8.582814469581804 37.32282047912947 2.40547540215923 0 0 0
580 1 10.299529238406723 38.12280682326346 1.7443941557143763 0 0 0
543 2 12.122240418924836 37.21600243108157 2.3941455357808903 0 0 0
584 1 13.963746289869016 37.91949734359945 1.8782874369285838 0 0 0
547 2 15.89235676731467 37.078215541777176 1.9272095478900426 0 0 0
588 1 17.291277070837978 38.14777834792052 1.0809495734385117 0 0 0
551 2 18.864033305913864 36.96956955110097 1.8669377334114128 0 0 0
592 1 20.069446112012848 38.07189621493265 0.7631726424509213 0 0 0
555 2 21.60499578566676 36.97737247756393 1.4599056091838947 0 0 0
596 1 23.139407069911016 37.78206305106703 0.7544927244244672 0 0 0
600 1 26.27932138693631 37.810823559666744 0.35207365296934934 0 0 0
559 2 24.803760011040822 37.01959379727959 1.2421771766416725 0 0 0
563 2 27.982387771224822 37.218602174291604 1.1269817557074087 0 0 0
601 1 29.03394889023661 38.832904369540195 2.525281860759988 0 0 0
566 2 31.124349992613816 36.858036796339505 0.6803640386250857 0 0 0
610 1 2.0464957505452688 41.12101822112274 2.410588491408933 0 0 0
9523 2 2.1964130596246862 40.95969015420818 0.4693123156852402 0 0 1
614 1 5.412497021069885 41.0935548340273 2.2190411100153216 0 0 0
9527 2 5.277423398570378 40.975825646388074 0.31924032754807885 0 0 1
578 2 7.041056365052657 40.161144608267264 2.627497397959339 0 0 0
618 1 8.66990571520545 40.94075311744942 1.9342470632126114 0 0 0
582 2 10.33115831669074 40.00620822475652 2.339511876484217 0 0 0
622 1 12.005349548392957 40.77404562189765 1.7728136573032525 0 0 0
586 2 13.703980902791638 39.85807429903033 2.196861438098107 0 0 0
626 1 15.195766687790055 40.83482913007819 1.4825481899466226 0 0 0
590 2 16.88368696589557 39.855115212868 1.8400005393718992 0 0 0
630 1 18.43582766920617 40.821019722213094 1.1496162825456135 0 0 0
594 2 19.941897386141704 39.78007696513199 1.5680032123680172 0 0 0
634 1 21.52196942617757 40.50639468023685 0.8838256824027777 0 0 0
598 2 23.111570765413383 39.6223386231956 1.3970525979047297 0 0 0
638 1 24.64015988439504 40.57671675697804 0.5937782199645799 0 0 0
602 2 26.24404578093111 39.57434564543669 1.0962508945239782 0 0 0
606 2 29.310739231114844 39.59648985441578 0.7136766680725567 0 0 0
642 1 27.74292019985863 40.63898486156826 0.23609077178794427 0 0 0
653 1 3.749701151271428 43.819394405813505 2.354714643820608 0 0 0
9566 2 3.729962661503034 43.77399928452806 0.4628560608531155 0 0 1
657 1 7.144670637039867 43.87348721212116 2.045062707012869 0 0 0
9570 2 6.922009587099987 43.76138598311069 0.09353202632435711 0 0 1
661 1 10.369052345834671 43.71703142007462 1.9114005024743486 0 0 0
620 2 8.716342030497056 42.826326420541974 2.5581992303453056 0 0 0
624 2 11.98689357864062 42.68545568693932 2.228322787064384 0 0 0
665 1 13.58228264651102 43.5400637286667 1.572780677810469 0 0 0
628 2 15.269107162775512 42.695941726938365 1.9849098062708592 0 0 0
669 1 16.721519352923792 43.66247999647628 1.1702854742754087 0 0 0
632 2 18.245157689584275 42.615435584084196 1.7326796682065222 0 0 0
673 1 19.857095826823453 43.29718674470284 1.0645824731581666 0 0 0
636 2 21.5300400238067 42.42861229585189 1.4275875751912301 0 0 0
677 1 23.028811441974554 43.339192106681736 0.6618975266184186 0 0 0
640 2 24.64036985224218 42.385604754011666 1.2169598389028315 0 0 0
681 1 26.129224111823156 43.371756513143616 0.36168483541861396 0 0 0
3325 2 0.7244523194794255 6.367805986347219 24.249874126487104 0 0 0
644 2 27.753646586666356 42.45815216671753 0.7317333155281658 0 0 0
647 2 30.757728897864 42.438249470938906 0.49240583003272653 0 0 0
643 1 30.562547810712843 42.02777635819217 2.3350260670650136 0 0 0
691 1 2.077349488106054 46.606623206148704 2.2191901493258426 0 0 0
9604 2 2.1270031674643874 46.625553993576034 0.22907995029226288 0 0 1
695 1 5.435506447007108 46.55430634030676 2.270010589975857 0 0 0
9608 2 5.421836673219459 46.61422665280569 0.326414734116972 0 0 1
659 2 7.089307201499313 45.66451615899779 2.671573327537562 0 0 0
699 1 8.542852738168131 46.33860519188929 1.6083299706299279 0 0 0
663 2 10.146406314976351 45.571247772913466 2.356532039458523 0 0 0
667 2 13.564096034041071 45.4185613668219 2.042734843528165 0 0 0
703 1 11.816409747947564 46.14610556730558 1.5733766804759373 0 0 0
707 1 14.98790776226164 46.32439501533771 1.1128161122731584 0 0 0
671 2 16.55929894658683 45.40841892657546 1.9070084435692611 0 0 0
711 1 18.110774228895963 46.104640766513064 1.0813754268884392 0 0 0
675 2 19.799082941986228 45.24836286631165 1.564719896531936 0 0 0
715 1 21.30434362709093 46.12595999826665 0.7427042360345874 0 0 0
679 2 22.889944208115338 45.19637947016602 1.3421779646015919 0 0 0
719 1 24.369321166362674 46.14937484195607 0.4435517416447494 0 0 0
683 2 26.0418963943606 45.21469024365477 0.8903299658870168 0 0 0
687 2 29.177216507223463 45.18527217294573 0.6880308527902926 0 0 0
723 1 27.6469233379239 46.16367520118407 0.186299712777912 0 0 0
682 1 28.827926579009173 44.930145451132255 2.644139071663474 0 0 0
686 1 32.01909096575916 44.89837501317364 2.487003776042292 0 0 0
693 2 2.024226709202747 48.43895103658277 2.7587438029485294 0 0 0
734 1 3.675042317319335 49.137391109415056 1.9010710876999615 0 0 0
697 2 5.287319397837712 48.39837882428976 2.6656928093979917 0 0 0
738 1 6.93695011153633 49.039617250565854 1.777448201438133 0 0 0
701 2 8.618079924389022 48.14064160969476 2.1938998318874336 0 0 0
742 1 10.13465930096043 48.90763509308852 1.3869508707341909 0 0 0
705 2 11.758986837284382 48.1330599766806 2.065439486603497 0 0 0
746 1 13.368268151687541 49.03635337440685 1.1522672247335122 0 0 0
709 2 14.878296025765739 48.05240982794016 1.8777877897500619 0 0 0
750 1 16.506490986720266 48.748696686697265 0.9878948193754751 0 0 0
713 2 18.105682213889224 47.93098845842364 1.7106291652180134 0 0 0
717 2 21.238964109341723 47.909649973462884 1.3563050729494506 0 0 0
754 1 19.625960760565462 48.759496080413676 0.7900647004403536 0 0 0
758 1 22.764729849121316 48.81481760427054 0.568608724876309 0 0 0
721 2 24.384860006992966 47.946626748520224 1.1725629005596994 0 0 0
762 1 25.98031617889508 48.834536470297 0.5976128933611956 0 0 0
725 2 27.64955131292031 47.90835189002765 0.9199336594658474 0 0 0
766 1 29.223085786381354 48.90679941796425 0.22221913952680145 0 0 0
728 2 30.779118638974168 47.857085982132126 0.8297681384809806 0 0 0
772 1 2.0620137527785447 51.94859997449582 1.609926731087977 0 0 0
736 2 3.6108701300273003 51.009012455562086 2.2320794953330996 0 0 0
776 1 5.234570404085392 51.81007691788574 1.410135856283284 0 0 0
740 2 6.849874124009923 50.975411991972045 2.0369248495789076 0 0 0
780 1 8.508042831537232 51.66624595153015 1.2292579924213762 0 0 0
744 2 10.107534040434388 50.81746533222172 1.938202126311374 0 0 0
748 2 13.229551376812566 50.742859212754524 1.9306997166797684 0 0 0
784 1 11.705796697361535 51.70110706142658 1.21318878071584 0 0 0
788 1 14.77051406478014 51.49505520194768 0.9513838512964097 0 0 0
752 2 16.382757357413738 50.62635733060577 1.482713563621022 0 0 0
792 1 17.978213357571505 51.50424856931542 0.7843413348668868 0 0 0
756 2 19.553215860225535 50.65305187879527 1.4628009947317646 0 0 0
796 1 21.132913308969073 51.57656004080836 0.7470902989152115 0 0 0
760 2 22.821474784407556 50.62606625017948 1.2225239689906222 0 0 0
800 1 24.368633428845868 51.614873768703426 0.49563103047649826 0 0 0
764 2 25.980211839921743 50.68195683438578 0.9898549377206738 0 0 0
768 2 29.108547977306394 50.65937078533881 0.9471480464066556 0 0 0
804 1 27.594275783889643 51.62013928226559 0.4273473502732622 0 0 0
808 1 30.68310335574298 51.64478548752832 0.29461370557565475 0 0 0
774 2 1.928742521129622 53.798932494308225 2.164251073080495 0 0 0
5 1 3.678174564119957 54.58769847026113 1.4695125817383978 0 -1 0
778 2 5.248035717255631 53.6470805191262 2.0186253516847885 0 0 0
9 1 6.840425803317599 54.44450532215565 1.2071151323715656 0 -1 0
782 2 8.412706409924127 53.52894626656049 1.8097277112172627 0 0 0
13 1 9.976611968163002 54.311470470478454 1.0658333041636994 0 -1 0
17 1 13.053796596693862 54.160513808683355 1.0816657007377741 0 -1 0
786 2 11.481306841586738 53.50296408655096 1.8846772141466972 0 0 0
790 2 14.694367839029079 53.295372550292086 1.5806799542365322 0 0 0
21 1 16.25340158403534 54.16166051235899 0.8396780309592776 0 -1 0
794 2 17.859511086401376 53.36907604218969 1.4378016647021958 0 0 0
798 2 21.04206324464134 53.34534332377153 1.4250006477644146 0 0 0
25 1 19.427427461895597 54.35560023432794 0.8516995114602777 0 -1 0
29 1 22.665262091556976 54.24848375597263 0.8509385320204691 0 -1 0
802 2 24.270809131321975 53.39566146523797 1.3406704452548388 0 0 0
33 1 25.8417473730318 54.19125093640363 0.6447986847134967 0 -1 0
806 2 27.50731094096343 53.38572747644369 1.1327713275115694 0 0 0
37 1 29.040018130887717 54.489928429958724 0.4940130575569882 0 -1 0
809 2 30.682008817779902 53.5220849931483 0.9434863512432055 0 0 0
2 1 3.0828608434035436 1.8367435741385625 3.6745005832002735 0 0 0
4 2 1.4997015427010996 0.9442271988147739 4.274049813728076 0 0 0
8 2 4.695890998936195 0.9000499287137107 4.265010426534232 0 0 0
6 1 6.3570853118471975 1.6871710007698408 3.620138717865396 0 0 0
12 2 7.904181171935297 0.7486132557526102 4.376774685160438 0 0 0
10 1 9.520424354635148 1.5042478353792286 3.603807830257169 0 0 0
16 2 11.081741404707863 0.5921587905488674 4.285926774054678 0 0 0
14 1 12.65464424256998 1.4558108404587524 3.5293870987988103 0 0 0
18 1 15.786539304010162 1.1561752518745383 3.65165450221838 0 0 0
20 2 14.070878354441593 0.5394421668467207 4.392135474945197 0 0 0
24 2 17.406970005373083 0.26243763959472866 4.182568093194551 0 0 0
22 1 19.079197935782233 1.1715418701192104 3.7752702816208217 0 0 0
28 2 20.680060677387843 54.94214348598111 4.3794997551565364 0 -1 0
26 1 22.272548309434093 0.9972461690493626 3.6167439217020294 0 0 0
70 2 22.221494830091956 2.7695404538961963 4.422048327304163 0 0 0
30 1 25.38274716209026 1.1196221595791012 3.325969104942308 0 0 0
74 2 25.316249978328457 2.871392333676385 4.120870056883683 0 0 0
34 1 28.62371282424145 1.314086283111508 3.1210422137859792 0 0 0
36 2 27.095606490494582 0.32322906761543224 3.861180918320498 0 0 0
38 1 31.519396858411284 1.4684976286549047 3.0858366880870616 0 0 0
40 2 30.09154334882342 0.3412038232328993 3.786893281893422 0 0 0
46 2 2.9874621108334796 3.7401259026673164 4.000020628626463 0 0 0
42 1 1.344379695052213 4.535064728304573 3.3252157931066275 0 0 0
44 1 4.631647545862365 4.545663802465444 3.375310178447759 0 0 0
50 2 6.042557043836042 3.4505420649077685 4.113633436118013 0 0 0
48 1 7.700075078717665 4.207235826892813 3.4275933731193935 0 0 0
54 2 9.176052276210171 3.277207594717657 4.231290682069458 0 0 0
52 1 10.885555867864689 3.96074013516136 3.491538614080316 0 0 0
58 2 12.34850678602966 3.1761245639048177 4.334522694720493 0 0 0
62 2 15.60604270959706 2.9348752376300973 4.496628629658548 0 0 0
56 1 14.067512421024135 3.856011709635652 3.7482961921314404 0 0 0
66 2 18.760856387790938 2.8696165317646383 4.7651993299654745 0 0 0
60 1 17.296196883269218 3.972543345033188 4.078198176576942 0 0 0
64 1 20.515911497074555 3.56369480123708 3.9502421971329005 0 0 0
109 2 20.38716889748074 5.42443438267965 4.628330892841637 0 0 0
68 1 23.662330256374993 3.813157931930945 3.5980493551234023 0 0 0
78 2 28.5020394122987 2.9986241120812624 4.075073006241874 0 0 0
72 1 26.90810920749543 3.9308856229705773 3.611276789933371 0 0 0
76 1 29.893841118947407 4.151914989158391 3.3766628546191733 0 0 0
81 2 31.308614243546565 3.0750952040863 4.045598858583109 0 0 0
83 1 2.8753538360727053 7.243255160379625 3.0541043181863397 0 0 0
85 2 1.1940945799193516 6.452083531912391 3.687888483947374 0 0 0
89 2 4.366690947731863 6.378079562132493 3.88286365136815 0 0 0
87 1 6.058408234555892 6.965793228385157 3.21203518637046 0 0 0
93 2 7.602276713867804 6.037070777114191 3.9714035838001838 0 0 0
97 2 10.797259343655277 5.844356578921542 4.1745536532763134 0 0 0
91 1 9.28981873768877 6.885119661881854 3.4056680599788107 0 0 0
95 1 12.448647075717803 6.749886984725773 3.6945161979618 0 0 0
101 2 13.923560761132737 5.682913165167091 4.435309833268928 0 0 0
99 1 15.653092646838441 6.568667823039673 4.033509168461024 0 0 0
105 2 17.130357454609566 5.690953442434092 4.945296420717813 0 0 0
103 1 18.79297515924317 6.4311157026129075 4.303279441229779 0 0 0