LAMMPS data file via write_data, version 22 Jul 2025, timestep = 60000, units = metal

28800 atoms
2 atom types

0.6253359076399381 95.04466409236458 xlo xhi
0.23004370678372693 55.00505630521556 ylo yhi
0.04698362942298601 62.176784370577245 zlo zhi

Masses

1 69.723
2 14.007

Atoms # atomic

43 1 2.157521557648955 2.591658438722459 1.9082991075916855 0 0 0
7 2 3.673649827975329 1.6064574210259668 2.6635680591574995 0 0 0
47 1 5.326119374972394 2.4790206886999826 1.908650744983887 0 0 0
11 2 6.909459469397559 1.5555288624409638 2.5195455319762066 0 0 0
51 1 8.431493277112793 2.442216674984574 1.9589303477892035 0 0 0
15 2 10.002895167412383 1.5764598778393792 2.509949393986404 0 0 0
55 1 11.558707627103399 2.3892539517623046 1.6674449314243982 0 0 0
19 2 12.964235046214736 1.395217783211679 2.4739106233356543 0 0 0
59 1 14.59538075913417 2.1395201528448218 1.7601953165739188 0 0 0
23 2 16.194590626489813 1.250307825410275 2.417296996129603 0 0 0
63 1 17.783284628030152 2.1280072578013627 1.7672763147579462 0 0 0
27 2 19.36364774097263 1.2675304919974575 2.463135204714355 0 0 0
67 1 20.939659024334556 2.1192372694686283 1.7375385828124803 0 0 0
31 2 22.538207923866306 1.2073313049374477 2.298875903823498 0 0 0
71 1 24.147190620270408 2.022425950421766 1.6141403646250816 0 0 0
35 2 25.85634605879867 1.3090579850970885 2.0339776510905545 0 0 0
75 1 27.338368986967723 2.42383193747991 1.3720362247376985 0 0 0
39 2 28.929181769749555 1.3966590173102447 1.7616782775071846 0 0 0
79 1 30.479884785457916 2.4443180453132403 1.2133035119646358 0 0 0
41 2 31.994628099250036 1.3252317570264485 1.6489093781810413 0 0 0
45 2 2.1471879980581456 4.437568813798296 2.30586286106503 0 0 0
49 2 5.3587018552196195 4.43437960607051 2.180217466678469 0 0 0
86 1 3.775762745979643 5.2968483603159235 1.600366664477145 0 0 0
90 1 6.921453075391737 5.345635715994931 1.4012775233958477 0 0 0
53 2 8.440896978335095 4.357828350804702 2.203988443209078 0 0 0
94 1 10.12758396898976 5.123537873516874 1.527271923901928 0 0 0
57 2 11.583596030016187 4.197096426589252 2.3536549160555698 0 0 0
98 1 13.236970409632393 5.034874595436587 1.783977327044383 0 0 0
61 2 14.62678212776014 3.933698192154562 2.3533172382367837 0 0 0
102 1 16.188476742353508 4.808642080482578 1.8394085949557621 0 0 0
65 2 17.660161635954783 3.839085791872266 2.672394129874467 0 0 0
106 1 19.275691907136054 4.772219599796242 2.0693264522068633 0 0 0
9019 2 19.31529839260743 4.664864378946236 0.12795238858497068 0 0 1
110 1 22.37486278151861 4.780639134782392 1.8783944014384855 0 0 0
73 2 23.9011909977412 3.7681789428292527 2.4024723529269965 0 0 0
4416 1 0.7064536162620101 27.189797447639112 29.900005028855258 0 0 0
114 1 25.365075821385364 4.862613967324141 1.7845026905415073 0 0 0
77 2 27.08593884240242 4.174227650101047 2.206261961321832 0 0 0
118 1 28.60970093160985 5.128631326937748 1.6583727862120659 0 0 0
80 2 30.238577245802976 4.221882021494659 2.0462741073702215 0 0 0
9801 1 31.747538812084883 5.345069660022094 1.4611236615836969 0 0 0
88 2 3.753348087214683 7.223924222955068 2.052272463180856 0 0 0
92 2 6.9550167604316036 7.198060498283349 1.9907990941040008 0 0 0
132 1 8.472530089033304 8.080524152197782 1.2039697696735148 0 0 0
96 2 9.894152817610712 6.992234366329157 2.0798158248536245 0 0 0
100 2 12.970956121379718 6.82496853448745 2.3855436279809905 0 0 0
136 1 11.535150169424472 7.775326970970842 1.540618655160131 0 0 0
140 1 14.661485109691455 7.512034319587645 1.7694073265045078 0 0 0
144 1 17.484730236844733 7.51134752163726 2.0942673942721015 0 0 0
9057 2 17.6686949815022 7.520998181686826 0.1759330715042981 0 0 1
148 1 20.669554663662204 7.438518302843104 2.324145086082652 0 0 0
9061 2 20.648865095706807 7.658534735500634 0.4541248634419768 0 0 1
152 1 23.727871576743137 7.631132233438927 2.0120399594295373 0 0 0
116 2 25.353117665592247 6.728729384981787 2.419002685084657 0 0 0
156 1 26.88406574296516 7.7880705273407465 1.94145421000308 0 0 0
120 2 28.560740955140453 6.939548497917433 2.3270004497599186 0 0 0
160 1 30.25281179394083 7.920118298641838 1.8312746908599735 0 0 0
124 1 2.254227622433179 8.134508258820974 1.1415538528397575 0 0 0
126 2 2.2193927972455807 9.992819305325176 1.599586113172862 0 0 0
128 1 5.391835469422965 8.091822153169101 1.3932330896072176 0 0 0
130 2 5.312690442889375 9.96214902794978 1.8731725316667045 0 0 0
134 2 8.547583807738341 9.810651355451665 1.9457785487671486 0 0 0
138 2 11.594376657995502 9.529020418227052 2.3413405514051586 0 0 0
179 1 13.155644000568989 10.386229037682982 1.761573808470546 0 0 0
183 1 15.964207894179477 10.242551355904048 2.110090231841638 0 0 0
9096 2 16.134602364452867 10.227296416216497 0.21236746593053613 0 0 1
187 1 19.094253301373193 10.171859475540312 2.3532766955168603 0 0 0
9100 2 19.106616835183907 10.468860478074719 0.4889097776689081 0 0 1
191 1 22.198587262213344 10.320597321271537 2.208022661425864 0 0 0
154 2 23.802366899263834 9.42631467640341 2.628665556861156 0 0 0
9104 2 21.983718155181062 10.43403237965164 0.2031864594723688 0 0 1
195 1 25.371585501074133 10.42231986864839 2.0469501013224445 0 0 0
9108 2 25.179857924238295 10.423911819842308 0.10158239793924724 0 0 1
158 2 26.99233074822025 9.596904970781848 2.6785698562352454 0 0 0
199 1 28.912207699710354 10.32259569857398 2.3799589031857478 0 0 0
9112 2 28.509038010553123 10.464245492164038 0.3641971773986502 0 0 1
161 2 30.81821231880588 9.709134993965113 2.441696227325974 0 0 0
165 2 1.0600654731590389 13.000298488103645 0.8671838558384584 0 0 0
163 1 1.065927648989961 11.077013739686704 0.5819649555767354 0 0 0
167 1 3.8340442990053516 10.94928971734991 1.1501285001415944 0 0 0
169 2 3.8565870725501705 12.792766372048321 1.5736635701004884 0 0 0
171 1 6.932227049869073 10.827854247815075 1.401313084752547 0 0 0
173 2 6.838119365387815 12.676316215677883 1.9500963853652697 0 0 0
175 1 10.320895266000319 10.733850003912952 1.517652332422408 0 0 0
177 2 9.98140755683942 12.487633081824566 2.2810991633052224 0 0 0
181 2 13.037385257376977 12.089761851843475 2.627979801431425 0 0 0
217 1 11.696316677963038 13.133799165170988 1.8139505002052945 0 0 0
221 1 14.521794196330509 13.14544991218119 2.0340446032267714 0 0 0
9134 2 14.61775855992723 13.089043829218438 0.13151063515082545 0 0 1
225 1 17.562915232222704 13.061399967917051 2.487429739339741 0 0 0
9138 2 17.59580402433507 13.163298438844192 0.5086890029826046 0 0 1
229 1 20.587277394103143 13.032683900117199 2.28771605418284 0 0 0
9142 2 20.5136933536766 13.1243734847467 0.2661830132969163 0 0 1
233 1 23.763602979474438 13.156489169110602 2.2461738866822736 0 0 0
9146 2 23.611696671659846 13.235510306819455 0.31775356223233303 0 0 1
197 2 25.40649850762524 12.269578941326007 2.748177995340409 0 0 0
9150 2 26.745407089614943 13.102422384749024 0.36096373236300644 0 0 1
237 1 27.062757716186102 13.172572853042091 2.2450966948354156 0 0 0
241 1 30.36663091757206 13.182258965996743 2.5613991524421738 0 0 0
205 1 2.721942792041388 13.905976669689217 0.4632249307015064 0 0 0
207 2 2.3901233931743797 15.757844153825415 1.133637801742468 0 0 0
209 1 5.490658898310555 13.695507253884488 1.0868692474717128 0 0 0
211 2 5.452771819998814 15.515034402599762 1.6077658119618825 0 0 0
215 2 8.566542975459507 15.262135222144579 2.174414359653912 0 0 0
213 1 8.495570963962654 13.414684314368362 1.4213088303263124 0 0 0
219 2 11.553919166268104 14.938695706980708 2.6554612160425948 0 0 0
9181 2 19.1125405538362 15.817551124031525 0.26482079754465354 0 0 1
235 2 23.58907118388671 15.03705868277735 2.831485639325135 0 0 0
9189 2 25.219552082272276 15.99192041991934 0.42201902775688027 0 0 1
9193 2 28.460933414112166 15.967008005939446 0.4522324806324143 0 0 1
280 1 28.65164220624813 16.015359863096748 2.371291013384376 0 0 0
239 2 26.955494651282436 15.023988233511785 2.84197897132989 0 0 0
9153 2 30.105986538179376 13.181612383777441 0.5162146632373947 0 0 1
244 1 1.2370808094295218 17.01981548077246 0.31343883905641906 0 0 0
248 1 4.108385437804346 16.57498663699293 0.7693125816626051 0 0 0
250 2 4.089088990085743 18.299315855648203 1.5895552752734716 0 0 0
252 1 7.189493528138714 16.322183504921398 1.249055747398679 0 0 0
254 2 7.1898090103275365 18.092919225239434 2.00247451875862 0 0 0
256 1 10.27406196871604 15.987882570462185 1.646732381511329 0 0 0
258 2 10.174982457468902 17.77261488725385 2.472268265746582 0 0 0
260 1 13.11409754537758 15.948684523730346 2.0631140514695114 0 0 0
264 1 15.939674646412106 16.109978581210207 2.4872212348964986 0 0 0
9177 2 16.20825825567662 15.98184718399743 0.596765896690265 0 0 1
268 1 19.12335597883582 15.826849214019914 2.213591576714731 0 0 0
272 1 21.936692701002297 15.961040979670223 2.0813953171918094 0 0 0
276 1 25.298883440209437 15.96598102200368 2.3712963179744704 0 0 0
18763 2 31.729239844690866 15.905258125160708 0.3199917043405317 0 0 1
246 2 0.874278800413761 18.641044055742046 1.123690634553567 0 0 0
286 1 2.6833874264508433 19.282854277847644 0.7867356246848708 0 0 0
292 2 5.724171557211909 20.892082195150863 1.8745368904047108 0 0 0
290 1 5.887210452444712 19.18634738122571 1.1236499860097455 0 0 0
296 2 8.709392026546373 20.612607432217636 2.588532537740324 0 0 0
294 1 8.899088003726282 18.895567124666474 1.6087380977962062 0 0 0
298 1 11.675009795504494 18.851118416321018 1.9457515120840565 0 0 0
302 1 14.447995463552843 18.893762027932233 2.1827443649200315 0 0 0
9215 2 14.720482329965183 18.758076168812913 0.31794570417854295 0 0 1
306 1 17.6882546713022 18.680288173801625 2.2093155911354065 0 0 0
9219 2 17.71450259536761 18.719538236311614 0.32735217187471793 0 0 1
310 1 20.494462396634212 18.68040350909442 2.080038407108363 0 0 0
312 2 20.537927483419022 20.58557927771877 2.6912068010853143 0 0 0
314 1 23.70250360155525 18.66149410715541 2.1859766913854775 0 0 0
9227 2 23.691301003296232 18.596171415413433 0.20389708428412923 0 0 1
316 2 23.86143175127479 20.49295580715155 2.6480130096109664 0 0 0
9231 2 26.98029901390631 18.69416618765338 0.2023266107801711 0 0 1
318 1 26.969044782684495 18.732633049884708 2.168663302238039 0 0 0
322 1 30.354176136976527 18.76685778306434 2.1488282908737215 0 0 0
9234 2 30.19925697408442 18.686973548070103 0.19995839225607193 0 0 1
288 2 2.66845286931427 21.15336441675486 1.4521895086955972 0 0 0
325 1 1.1328656544124833 22.208008819204053 0.7341874289878187 0 0 0
329 1 4.37391423914365 22.02233127766023 1.094344511636518 0 0 0
333 1 7.411617750140927 21.762561425760072 1.7088760299872812 0 0 0
335 2 7.240406865412476 23.4629593974727 2.607258556161624 0 0 0
337 1 10.184694725182439 21.695396052031324 2.0533628895566 0 0 0
341 1 12.984796711465219 21.69075751588125 2.3171893174460583 0 0 0
9254 2 13.15153273090645 21.72454316496421 0.3586159156285602 0 0 1
345 1 16.142448181845097 21.580057006749723 2.157404518013991 0 0 0
9258 2 16.15081782152461 21.585541375517593 0.25052100298982644 0 0 1
349 1 18.998561732403704 21.612694171678026 2.102253188147251 0 0 0
353 1 22.281168920312485 21.45565520703819 2.080661052956834 0 0 0
355 2 22.40381752170015 23.29745497981395 2.678072470502757 0 0 0
357 1 25.519206858268163 21.419217906916305 2.1240188508775404 0 0 0
359 2 25.602912906831357 23.27042446028329 2.7314361051722895 0 0 0
361 1 29.00587810974147 21.289160296218874 2.3795222248488375 0 0 0
9274 2 28.813522135769958 21.301754840430924 0.32940524989488845 0 0 1
363 2 29.456493796719815 23.184614566616037 2.5974843835511736 0 0 0
367 1 2.5727896904653362 24.856209094593645 1.1838045540171893 0 0 0
327 2 0.8955167076884845 23.94050461113825 1.4928582037130185 0 0 0
331 2 4.113342720837631 23.869000852186613 1.8325510222466252 0 0 0
371 1 5.884416772807714 24.62183780440385 1.8196144402677894 0 0 0
375 1 8.710220366561014 24.516995898539623 2.102761054298968 0 0 0
9292 2 11.619462236966697 24.389605274635972 0.3900185315058295 0 0 1
379 1 11.479431433325365 24.54473757998051 2.3225444162244564 0 0 0
383 1 14.627424445015151 24.331689700228672 2.4367835751076656 0 0 0
9296 2 14.642222385888576 24.36797647018915 0.44051609826232596 0 0 1
9300 2 17.593658754334303 24.423727427577465 0.22261460018989596 0 0 1
387 1 17.651147626545736 24.427790340903293 2.165711630818642 0 0 0
391 1 20.8281445519801 24.237200875719417 2.1500581278670103 0 0 0
395 1 24.062314994715447 24.19601143120707 1.9528147260102007 0 0 0
397 2 24.987803899921058 25.968395839087556 2.44720060890904 0 0 0
399 1 27.633758976914553 23.78049585244823 2.29110363364297 0 0 0
401 2 28.148810915129634 25.688507120660503 2.415490844392671 0 0 0
9312 2 27.21423096842179 24.004250996728334 0.2240553974645756 0 0 1
403 1 31.095466758700386 23.92463169640636 1.7983390405289172 0 0 0
404 2 31.56710730662403 25.766185538620775 2.3652386959563176 0 0 0
369 2 2.4387244469674427 26.614714382920774 1.9582848607428707 0 0 0
406 1 0.8691718876039812 27.60611924731922 1.3179399369721685 0 0 0
373 2 5.686977587221739 26.502192625831526 2.4096954530131898 0 0 0
410 1 4.191278083777968 27.549011126900613 1.597233771462246 0 0 0
414 1 7.352147757965713 27.48619339143894 2.039065890930649 0 0 0
9327 2 7.696769361696595 27.52720436200463 0.08744821404258499 0 0 1
418 1 10.125853653016323 27.404392120614276 2.3692523473435614 0 0 0
9331 2 10.483372873192309 27.411392755373853 0.40446944390839085 0 0 1
422 1 13.211083172406745 27.192378773803878 2.5739559233886067 0 0 0
9335 2 13.309670174553819 27.173252714139995 0.6676086401920078 0 0 1
9339 2 16.38811462561985 27.05020481888279 0.4723333744837772 0 0 1
426 1 16.568759491453804 27.004851808586746 2.419703772061387 0 0 0
430 1 19.992478880512515 26.93818010706455 1.9803446435140715 0 0 0
432 2 20.717967173613626 28.657694649099756 2.6014334861488546 0 0 0
434 1 23.275464910094506 26.86972061712845 2.068072834658927 0 0 0
436 2 23.9217842257151 28.61982899238464 2.4959673530177837 0 0 0
438 1 26.652057578246346 26.763178849364124 1.768002598521135 0 0 0
440 2 27.07931807421065 28.526400525812072 2.3068805962139813 0 0 0
442 1 29.87573193782978 26.488028664375797 1.736201560930151 0 0 0
444 2 30.23081984359595 28.3301530631039 2.2253796754549966 0 0 0
408 2 0.7466928546011478 29.412854804721945 2.0747095515330662 0 0 0
448 1 2.475819481428114 30.257838328481277 1.7814524183094227 0 0 0
412 2 4.07538803190295 29.315193687526936 2.3146796675233694 0 0 0
452 1 5.662935496727068 30.29177274102859 1.8981525160252695 0 0 0
416 2 7.3302283207543 29.37368888572273 2.575595936373817 0 0 0
456 1 8.8879133012096 30.335487113696793 2.1107173318481545 0 0 0
460 1 12.09365232393802 30.17122304369249 2.296107246643367 0 0 0
9373 2 12.344077296132868 30.289770301707794 0.3936068621771071 0 0 1
464 1 15.553870549803031 29.56753736841224 2.602657960631715 0 0 0
9377 2 15.570185778919297 29.87256357697928 0.5161165164986432 0 0 1
9381 2 18.83804653460138 29.55309552189772 0.11097872096837261 0 0 1
468 1 19.083157502948392 29.57233306117374 2.0647048656056044 0 0 0
470 2 19.304809313886363 31.374273166853992 2.573335526979951 0 0 0
472 1 22.295143395331067 29.52928065604671 1.931185599727698 0 0 0
474 2 22.504252040971593 31.355504822652094 2.4737617490439345 0 0 0
476 1 25.509304035536662 29.375942179915363 1.6853115568519266 0 0 0
478 2 25.66420136242146 31.34772681433936 2.077855659819127 0 0 0
480 1 28.681775947355753 29.303229684462824 1.674819438411919 0 0 0
482 2 28.79654110129738 31.172683927501318 2.058328603815163 0 0 0
484 1 31.940960688833467 29.16244490334113 1.5461507123638751 0 0 0
485 2 31.893148268920914 31.0929519412405 1.9562382104877265 0 0 0
450 2 2.3347988700795304 32.089483995942416 2.466323844968899 0 0 0
491 1 3.989143832493115 33.016225288146416 2.212747388661514 0 0 0
9404 2 3.681484409268337 32.93946439073576 0.3372990997853923 0 0 1
495 1 7.195148690655701 32.953738899888535 2.0866131996476 0 0 0
9408 2 7.092605300708179 32.96543523178783 0.06639189177350582 0 0 1
9412 2 10.640534122325894 33.025428268540125 0.31853362503373156 0 0 1
499 1 10.551707294916689 32.884507375246415 2.2544874421715715 0 0 0
9416 2 14.036062234633825 32.68748370075113 0.5869989832652167 0 0 1
503 1 14.253667653211572 32.47415817166735 2.6418853053248714 0 0 0
507 1 17.66223723363533 32.21822215653676 2.1102301651463784 0 0 0
9420 2 17.431610287602737 32.361123051416996 0.17690331323540082 0 0 1
511 1 20.890896718543406 32.2543691839149 1.9338620857619764 0 0 0
515 1 23.97854792894628 32.274711132358036 1.669393858821873 0 0 0
517 2 23.978712591827158 34.09635397695526 2.1684290185372044 0 0 0
519 1 27.238530573461055 32.10451137467187 1.330333246253546 0 0 0
521 2 27.17353048696531 33.89598297397657 1.9584605369818096 0 0 0
525 2 29.850302188530865 33.88380680028631 1.1003152003892458 0 0 0
523 1 30.268206685855617 31.928896166263737 1.2220962847032835 0 0 0
529 1 2.2826066004013104 35.70590161080781 2.5705963425586926 0 0 0
9442 2 2.041976029488291 35.686588740815445 0.6790381027719191 0 0 1
533 1 5.5656271819603145 35.70735847791294 2.381932099535449 0 0 0
9446 2 5.1723688416183595 35.63154535695844 0.5579510690887163 0 0 1
9450 2 8.633033896752055 35.596393038268815 0.32202712891711577 0 0 1
537 1 8.89137992500661 35.51758737733504 2.240736320565067 0 0 0
9454 2 12.26778833223914 35.62885210252041 0.49512127528214595 0 0 1
541 1 12.619762078164419 35.49714248601146 2.611438436598991 0 0 0
545 1 16.197212263045824 35.13007005898853 2.1196593303167286 0 0 0
9458 2 15.774569225451708 35.13196580124332 0.27563325277252965 0 0 1
509 2 17.814182996633633 34.11124052751848 2.679274849252334 0 0 0
513 2 20.95305917887346 34.05786888072788 2.4909727672289455 0 0 0
549 1 19.237261328284823 35.172333406172214 1.981145183523839 0 0 0
553 1 22.32431962708787 35.10666580003199 1.7102248299994267 0 0 0
557 1 25.44605416471849 35.02584593781574 1.4245386570514265 0 0 0
561 1 28.285094176405348 35.039422911804444 0.9578476877023556 0 0 0
565 1 31.402932420583163 34.960021911238364 0.7959607236056319 0 0 0
566 2 30.978309862417078 36.73573091160837 1.5574285446950513 0 0 0
9479 1 1.8289934607136247 39.26565275284591 0.3320865176107367 0 0 1
9485 2 3.517802419291606 38.37410799600395 0.7604529025817552 0 0 1
9483 1 5.215751761910081 39.262201750859724 0.3055956946010453 0 0 1
576 1 7.162987973648892 38.33227156700847 2.5350943708774896 0 0 0
9489 2 7.00354228093161 38.38097153493488 0.6235473826240613 0 0 1
580 1 10.526037188513142 38.21444900351623 2.343111582720824 0 0 0
9493 2 10.598438730795264 38.17853585599074 0.41522582235748234 0 0 1
584 1 14.15071622181851 37.88507954866201 2.5135644263831054 0 0 0
9497 2 14.086237549454816 37.940051421406956 0.50767221652305 0 0 1
588 1 17.464782416462302 38.109669507562366 1.915722183019294 0 0 0
592 1 20.224158708423516 38.13366744188273 1.563368599821175 0 0 0
555 2 21.71552271432691 36.97965498379616 2.2189434762009776 0 0 0
596 1 23.32051797577112 37.729743200884826 1.5289625821939663 0 0 0
559 2 24.91350658089753 36.826327932341954 2.083560638699576 0 0 0
600 1 26.419413705348628 37.7442152433322 1.3046417719770016 0 0 0
563 2 28.002065435327978 36.77232384947692 1.8244544656193848 0 0 0
604 1 29.470992693548062 37.66741991811068 0.9399847202671926 0 0 0
9519 1 0.6571748522466598 41.81553233377939 0.16099042587058957 0 0 1
9523 2 2.219466062089683 40.96066584457245 1.0289587508868676 0 0 1
9527 2 5.510078613602555 41.0690995182102 0.8738769736447667 0 0 1
9521 1 3.792283193097139 41.89850630866367 0.24339436606039958 0 0 1
9531 2 8.946426950907528 40.9681773121259 0.6098245918776349 0 0 1
618 1 8.978769858734431 41.052747976925254 2.5755168751938093 0 0 0
9535 2 12.282604475629597 40.87619376179428 0.5038721224259015 0 0 1
622 1 12.269179268244297 40.894260671885526 2.416020916535744 0 0 0
626 1 15.387145887603063 40.85770097363427 2.113843095944385 0 0 0
9539 2 15.593744719015932 40.74701828768248 0.20210685463952335 0 0 1
590 2 16.999691898454994 39.88275496743615 2.5999171028068044 0 0 0
630 1 18.460023813586655 40.93983368476016 1.897764979795999 0 0 0
594 2 19.990182877249218 39.94806254974324 2.3481294399910793 0 0 0
634 1 21.72625816807432 40.55776764348743 1.595373974131632 0 0 0
598 2 23.292305391850448 39.54600321876526 2.0458684047958156 0 0 0
602 2 26.44849565993399 39.5665469021277 1.7816712250815834 0 0 0
638 1 24.815725052579428 40.540084176370385 1.3647341439568854 0 0 0
606 2 29.435722936879884 39.50212037010978 1.5401894015239321 0 0 0
642 1 27.844690990906997 40.50759329901066 0.9416957699963595 0 0 0
646 1 31.024507369479927 40.4090253817553 0.6586353416599717 0 0 0
9562 2 0.8075814039417383 43.567976297429716 0.9706851035246313 0 0 1
9566 2 3.9952774791904355 43.75791793817033 0.9419227200416715 0 0 1
9570 2 7.301103961789964 43.801834908581355 0.6722746791867397 0 0 1
661 1 10.573838506229347 43.66563719288383 2.5299859172766435 0 0 0
9574 2 10.838595193478975 43.63991945312137 0.6047432139173963 0 0 1
665 1 13.773065400328298 43.70145420974987 2.3195593994658035 0 0 0
9578 2 13.963730483325872 43.483631197676736 0.39439130408296125 0 0 1
669 1 16.80851777625985 43.67341019705351 1.990290341227908 0 0 0
632 2 18.31622691999212 42.703810098405874 2.564362276420244 0 0 0
673 1 19.970319493644062 43.36203898882498 1.8760381010573424 0 0 0
636 2 21.60604612156872 42.42122868124188 2.1848059286209938 0 0 0
677 1 23.09499453113215 43.33097072864585 1.3485937858386647 0 0 0
640 2 24.733993697441175 42.35821423461896 1.9826175047036576 0 0 0
681 1 26.20746148561326 43.27544821146566 1.1405585924688133 0 0 0
644 2 27.812624680950897 42.34434658066778 1.5019769159438008 0 0 0
685 1 29.257086858971007 43.24648242269148 0.6687600310704063 0 0 0
647 2 30.768256084822802 42.191797678596885 1.3315858472768882 0 0 0
9560 1 2.2889042508018838 44.789530565588564 0.2601409175529941 0 0 1
9604 2 2.5554044694868963 46.68499362877208 0.7510479644936537 0 0 1
9608 2 5.770274342709266 46.611953651597034 0.6683710685488214 0 0 1
9612 2 9.087632363350236 46.46416254277389 0.43983371102351787 0 0 1
699 1 8.929251634465192 46.26806283490019 2.3402290481304098 0 0 0
703 1 12.034552553748146 46.348424079547144 2.1035203814504997 0 0 0
9616 2 12.32563051427526 46.34878284071228 0.2354266063444831 0 0 1
707 1 15.231153912302881 46.37865172315799 2.000085593798024 0 0 0
711 1 18.433475597349876 46.22716034045711 1.7223558121667337 0 0 0
671 2 16.849990856131672 45.463197622156706 2.635235991962386 0 0 0
675 2 19.995654872758568 45.232268005880414 2.357561573961994 0 0 0
715 1 21.482762393705762 46.12250942291645 1.5140958784209704 0 0 0
679 2 23.1101736312884 45.18326813350864 1.9478742868292303 0 0 0
719 1 24.601618455887998 46.0798851972512 1.092525853231133 0 0 0
683 2 26.08879480640447 45.0819640701038 1.7098037461252085 0 0 0
723 1 27.45355842247493 46.120906137257045 0.8333384485822749 0 0 0
687 2 29.042108974696646 45.09189060274037 1.3341485342503316 0 0 0
727 1 30.58673735376277 45.96209444191877 0.5814183543718493 0 0 0
730 1 0.8434810634486987 49.08306533520124 2.5272424211180993 0 0 0
9643 2 0.9298741792766657 49.47637542246332 0.6289112281982785 0 0 1
9600 1 0.9113681655174932 47.59511221888618 0.14964108116692862 0 0 1
734 1 3.96014861265002 49.130508137195065 2.493437448440208 0 0 0
9647 2 4.160739184156281 49.44851747826248 0.5964796780872031 0 0 1
9602 1 4.193752314325892 47.58007911488151 0.11870321104156313 0 0 1
738 1 7.239628581501672 48.937205858497045 2.335311838906642 0 0 0
9651 2 7.415164920910894 49.27138492965231 0.3719071884511764 0 0 1
742 1 10.412363419617026 49.03589518334732 2.205612908403693 0 0 0
9655 2 10.508504369231574 49.13949112153642 0.2532621219164198 0 0 1
746 1 13.416771939148221 49.10714332307108 1.931232445428918 0 0 0
709 2 14.952422612318543 48.168181289824865 2.672930633786548 0 0 0
750 1 16.599259997138073 48.755168706346986 1.7883601872257278 0 0 0
713 2 18.192918698642554 47.961003020923606 2.507160043503531 0 0 0
717 2 21.416632513136264 47.956991933335836 2.158836492757103 0 0 0
754 1 19.65321065245748 48.75764403688188 1.5362156352899936 0 0 0
758 1 22.882297010097776 48.88322422672854 1.3309412087394665 0 0 0
721 2 24.552543145420447 47.918239850692515 1.7973101771204507 0 0 0
762 1 25.955111506124922 48.86367685999632 0.9692212426713848 0 0 0
725 2 27.448162372703873 47.90634200512234 1.640043778238109 0 0 0
766 1 29.06915208117727 48.71439921191307 0.976124551018572 0 0 0
728 2 30.705446553772557 47.80985059037519 1.3482864978563647 0 0 0
772 1 2.317019765311027 51.81360023008497 2.3320361208751956 0 0 0
9685 2 2.480062990477231 52.180025515895544 0.4026441432461398 0 0 1
776 1 5.579114924828441 51.692798654209454 2.218015150866246 0 0 0
9689 2 5.717060989606511 52.14608041754451 0.3900612459843115 0 0 1
9693 2 8.766726666648218 51.92390974945909 0.2660700932151895 0 0 1
780 1 8.709204708002465 51.764997966720706 2.1866421145739463 0 0 0
784 1 11.846107878128407 51.81297628944833 1.8026936252682597 0 0 0
788 1 14.945543311765926 51.535664259429765 1.8955643852313173 0 0 0
752 2 16.570739913138794 50.65336627096447 2.2839466344136787 0 0 0
792 1 18.10970574973952 51.53022151673966 1.6157221476707304 0 0 0
756 2 19.682217562373136 50.6016380955088 2.20008602485961 0 0 0
796 1 21.238846887324293 51.56988554372564 1.6209520683961396 0 0 0
760 2 22.911260788809813 50.71644155867251 1.9822723313355846 0 0 0
800 1 24.51859217871208 51.55943008150041 1.2917378509671036 0 0 0
764 2 26.111501564204428 50.63903463876155 1.6365724741486316 0 0 0
804 1 27.654923303710593 51.60344748235265 0.9091556497089581 0 0 0
768 2 29.066750763284823 50.55990506406715 1.5754534398707363 0 0 0
808 1 30.495576166999825 51.60014653282858 0.7314561790985816 0 0 0
14481 1 31.914012162889144 52.54249937743748 29.35220398343532 0 0 0
8914 2 0.8187307939375399 54.90380444715972 0.09793427190659426 0 -1 1
8918 2 4.016304522268941 54.86448438586368 0.30548996217362584 0 -1 1
5 1 3.812950905365998 54.46493515096133 2.2832791300344764 0 -1 0
9 1 7.035793657399835 54.53619417467827 2.0115616064183333 0 -1 0
8922 2 7.213555749703838 54.56930043764021 0.11811131074634575 0 -1 1
782 2 8.645079182979767 53.662160714115856 2.6011504490253943 0 0 0
13 1 10.188178252279755 54.578832206740714 1.8244781842948976 0 -1 0
17 1 13.409451616801197 54.41305126506813 1.8403101793323473 0 -1 0
786 2 11.75021885100578 53.63114514753944 2.4713877622871263 0 0 0
790 2 14.982189332821923 53.36806810855257 2.3682747055698727 0 0 0
21 1 16.56577647686001 54.272264349644054 1.767821751832327 0 -1 0
794 2 18.143524300365964 53.405686511755555 2.220144971144053 0 0 0
25 1 19.67777355291143 54.39147022550937 1.639312090932337 0 -1 0
798 2 21.306093965090604 53.38777556013214 2.2231422361674396 0 0 0
29 1 22.78641994666741 54.32866482603849 1.394311731630131 0 -1 0
802 2 24.36396768973071 53.38332708984169 1.9571568221881237 0 0 0
33 1 25.869679682729917 54.33680850187333 1.243717412221988 0 -1 0
806 2 27.496409536705624 53.36366015213119 1.6317699789606694 0 0 0
37 1 28.955905941855413 54.39959998426255 0.9240587954398921 0 -1 0
809 2 30.448389040536163 53.412889569280146 1.4574905873445025 0 0 0
9721 1 31.9399659441739 54.37037693176388 0.7113974970051873 0 -1 0
4 2 1.7438810867731647 0.8938454822969704 5.196617066727739 0 0 0
2 1 3.420591492303999 1.676284204015806 4.561431218224246 0 0 0
8 2 4.969411567772962 0.733036356520516 5.090241200207868 0 0 0
6 1 6.525491811147365 1.7196437216320923 4.345183480902185 0 0 0
12 2 8.071182701788365 0.8520599023664575 5.113011143076386 0 0 0
10 1 9.695824822963678 1.5458280903397226 4.340468167338355 0 0 0
16 2 11.218482266429135 0.5979344268590554 5.110482037131255 0 0 0
14 1 12.82762271102262 1.3374905758542641 4.38943325656486 0 0 0
18 1 16.089774530309715 1.3366912541146805 4.361226216156228 0 0 0
20 2 14.437426484568975 0.4563312902019848 4.9725078774798375 0 0 0
24 2 17.655091126772835 0.32301325884571574 4.874411537952865 0 0 0
22 1 19.328255543851956 1.2613723052129664 4.426962347129579 0 0 0
28 2 21.00265967324314 0.35328113457427013 5.086530314543156 0 0 0
26 1 22.537066224297 1.163932281827706 4.2466811816282615 0 0 0
70 2 22.126886089739166 2.837036653319454 5.100782656596658 0 0 0
30 1 25.59561856417747 1.219815966346876 3.984904559270908 0 0 0
74 2 25.384976268615286 2.990116713832216 4.723737280807579 0 0 0
34 1 28.594592711828305 1.4039514093488246 3.6732311140126996 0 0 0
36 2 27.228570486115803 0.30326061897725964 4.474274925588858 0 0 0
38 1 31.53987912439061 1.3073554569717658 3.5990741185931894 0 0 0
40 2 30.049260439212745 0.319285002964064 4.284967408573339 0 0 0
42 1 1.7628152624467688 4.527121330699883 4.266455011731105 0 0 0
46 2 3.3819081706969967 3.6463973907187377 4.829566436378056 0 0 0
44 1 4.958982210730226 4.491609168047043 4.062912766852945 0 0 0
50 2 6.453911250679285 3.582154418047403 4.733260212226268 0 0 0
48 1 8.108470291974186 4.342823923045636 4.037568771496297 0 0 0
54 2 9.573421490450247 3.404530789098996 4.9040395137997415 0 0 0
52 1 11.230938071232375 4.177897621993594 4.222961472251355 0 0 0
58 2 12.758164254382558 3.1943948771545134 4.897172788240962 0 0 0
62 2 15.721851231584077 3.0639349268139404 5.123144882722302 0 0 0
56 1 14.341913985546995 4.125918475711241 4.273135767912323 0 0 0
60 1 17.49165565269778 3.668574437726503 4.568721752529964 0 0 0
69 2 20.791301538610245 3.8289992026189545 2.5701807775794894 0 0 0
64 1 20.52548018059042 3.74367508950552 4.553712131405547 0 0 0
68 1 23.667385046954102 3.7398094451659674 4.235707732770529 0 0 0
72 1 26.753362147773377 4.137282574915159 4.099831254058772 0 0 0
78 2 28.34023780261094 3.1037129939808086 4.617321544668482 0 0 0
81 2 31.377245720635006 3.0243771110195037 4.490504498797965 0 0 0
76 1 29.84441779364184 3.943005162736248 3.932603674459132 0 0 0
85 2 1.6055484924915364 6.486160461134791 4.456177744744478 0 0 0
83 1 3.297039435680601 7.360850656746426 3.9998051897867946 0 0 0
89 2 4.903602912857659 6.394027217845428 4.56348991882125 0 0 0
87 1 6.56067942998741 7.247803989857188 3.8254013299415717 0 0 0
93 2 8.004266880018083 6.194286794882568 4.605637378141138 0 0 0