LAMMPS data file via write_data, version 22 Jul 2025, timestep = 170000, units = metal

1296 atoms
2 atom types

0.29690381307205843 28.404096186927788 xlo xhi
0.1714174956513138 16.399112507948992 ylo yhi
-0.08402331213026049 31.195907312131247 zlo zhi

Masses

1 69.723
2 14.007

Atoms # atomic

21 1 1.5304753348263584 2.901908635363182 0.4851304404100962 0 0 0
7 2 3.039287734652205 1.633658269448454 1.1642476412498861 0 0 0
25 1 4.333727938095677 2.689768167215646 0.21199330388261625 0 0 0
11 2 6.327260020895054 2.456702025144486 1.1183290549742892 0 0 0
9 1 6.037720647166807 0.4180594139471188 0.44400120702942 0 0 0
15 2 9.014939080061735 2.440674194656577 1.398407589621935 0 0 0
13 1 9.160228218772023 0.5649704872406046 0.47877178226370465 0 0 0
18 2 12.196775202916701 2.484372397918784 1.3984865690668205 0 0 0
17 1 12.360542405389001 0.6718628434387437 0.39347865319375047 0 0 0
23 2 1.4063325461690996 4.640177078598834 1.564961645197782 0 0 0
42 1 2.839139047751447 5.415968979255861 0.3575457657119435 0 0 0
27 2 4.329246688954632 4.40661381340671 1.2109510984191585 0 0 0
29 1 7.763171891125926 3.4623430785115867 0.2283095558166594 0 0 0
31 2 7.373257374557249 5.15774540033747 1.3674390148207267 0 0 0
33 1 10.574595133454975 3.324268977148342 0.4642538835591196 0 0 0
35 2 10.544788772092245 5.156709933719769 1.449913550054198 0 0 0
37 2 13.220687541207491 5.357949329770218 1.2948488679946946 0 0 0
684 1 13.566188777858875 3.6597346940409246 0.4033310474776912 0 0 0
58 1 1.3421231469751334 8.290092883358534 0.5966257332305048 0 0 0
44 2 2.815900421905001 7.1640458688510416 1.186910913535819 0 0 0
46 1 5.556283415708423 5.8737205244371955 0.5009256682023704 0 0 0
48 2 5.774761897617162 7.688144819014135 1.3322180240915176 0 0 0
50 1 8.993226212426752 6.060022872750602 0.4686310538640906 0 0 0
52 2 9.02097089012402 7.856415136509129 1.4703361075120414 0 0 0
54 1 11.80897002666245 6.233061578885982 0.30483824623565814 0 0 0
55 2 12.252197064863402 7.835590097292218 1.4355566833414568 0 0 0
60 2 1.392465933325954 10.0572645048398 1.4652484552842737 0 0 0
79 1 2.9310460845393633 11.085321706613241 0.5820936809356928 0 0 0
62 1 4.107622697661755 8.67369981704477 0.44686535477948774 0 0 0
64 2 4.737896620535286 10.400318540058075 1.369370345141452 0 0 0
66 1 7.316324947081559 8.889392525147068 0.6659908596920692 0 0 0
68 2 7.960319496104215 10.753765048468352 1.3142261933418653 0 0 0
70 1 10.590998955246494 8.70793841118572 0.528944376566631 0 0 0
72 2 10.70525991306311 10.546269543353489 1.3549823665196237 0 0 0
719 1 13.815357005219207 8.881870093408383 0.45781120801647024 0 0 0
74 2 13.558046375962888 10.71733662806789 1.1841579485595224 0 0 0
81 2 2.8685913159360954 12.866871815914623 1.5203552770027697 0 0 0
83 1 6.146510499812022 11.33286965907511 0.46122919484015906 0 0 0
85 2 6.097098615159263 13.134972270759768 1.3712859498872285 0 0 0
87 1 9.266583969249906 11.671803690511698 0.26677961514830345 0 0 0
89 2 9.606379519678978 13.469841271401194 1.1911524643655917 0 0 0
91 1 12.042989799417164 11.422173617397581 0.15257151886703607 0 0 0
92 2 11.972634199218737 13.153473897114395 0.9447845852933877 0 0 0
95 1 1.3097225432850317 13.809284676577303 0.4162686283643423 0 0 0
97 2 1.0365679344126808 15.654700027628103 1.127216981767423 0 0 0
5 1 2.819752590467926 16.1447419062622 0.28969136435900666 0 -1 0
99 1 4.388373478212319 13.852331338168351 0.5468079256456141 0 0 0
101 2 4.399916123522811 15.723321156282253 1.4599109116161146 0 0 0
103 1 7.724371352270793 13.992520949040516 0.47727757880864524 0 0 0
105 2 7.651120053507997 15.806640695525898 1.3597627681919153 0 0 0
107 1 10.778487026235105 14.520575340834721 0.17811588845467236 0 0 0
109 2 10.806232863351964 16.116013446906454 1.4873736162774198 0 0 0
754 1 13.4841728391148 14.385504686668956 0.5549831606365334 0 0 0
111 2 13.957041312220039 16.097290446013332 1.5106356453556762 0 0 0
2 1 1.5635459453272194 1.0486111789108574 2.6726897094836786 0 0 0
24 2 1.8408960905185041 2.6951532338305477 3.778984343119848 0 0 0
6 1 4.386289656313345 1.0208834167562437 3.072206462756155 0 0 0
10 1 7.516692231474928 1.3907033762022463 2.711848123584084 0 0 0
12 2 6.182473636974695 0.43489038452309514 3.8072243169890245 0 0 0
14 1 10.657193014070362 1.6650094103970126 2.782603753546451 0 0 0
16 2 9.200758301645378 0.6609651092850831 3.6151449287213357 0 0 0
19 2 12.26493853338175 0.9421518851790013 3.7990299449092673 0 0 0
667 1 13.901115510768658 1.648228533140036 2.8813685219420946 0 0 0
22 1 3.042221234714704 4.150881225493199 2.9903917936472384 0 0 0
28 2 4.548348662645582 2.968873045044309 3.7386256367194957 0 0 0
26 1 5.871573787605296 4.052157297096399 2.7069854239747717 0 0 0
32 2 7.599577479347526 3.26495266613867 3.649139987470923 0 0 0
30 1 9.109635974886931 4.354252022088023 2.76945956756811 0 0 0
36 2 10.608394883557075 3.430235754460186 3.7595439087778084 0 0 0
34 1 12.173674269712208 4.212487795234341 2.8044395772912187 0 0 0
686 2 13.76839796262572 3.409273904693699 3.7628746901851997 0 0 0
39 1 1.243490296913538 6.500782004958206 2.8240572844679708 0 0 0
61 2 1.1087892064577056 8.186458420709352 3.9206800149729886 0 0 0
45 2 3.006522933441157 5.88111396433684 3.825515622001918 0 0 0
43 1 4.248475246774567 7.010621744944285 2.852338797628611 0 0 0
49 2 5.845197734769006 5.92334798833881 3.6843318328533416 0 0 0
47 1 7.425374117388472 6.9144088304689175 2.7625233694428815 0 0 0
51 1 10.525618982446888 7.008236220365909 2.8273868414280483 0 0 0
53 2 8.961558961491265 6.134941533957828 3.7453490761292074 0 0 0
56 2 12.06367198022296 6.015045414159638 3.68742541223642 0 0 0
702 1 13.670600747370806 6.910500325258998 2.9437947670498685 0 0 0
59 1 2.5268962950254608 9.38205512810566 3.305492151312438 0 0 0
65 2 4.237700902166788 8.64602848082502 3.9312954467791648 0 0 0
63 1 5.791599578640901 9.312178117016066 2.972280199313829 0 0 0
69 2 7.601591913450462 8.764846705802908 3.744089406011394 0 0 0
67 1 9.155024505948717 9.657256443544542 2.825449831107627 0 0 0
73 2 10.877337249044 8.849877389555491 3.655157794595287 0 0 0
71 1 12.362779677861518 9.750499295924095 2.717459541150867 0 0 0
721 2 13.843864517645722 8.795315506875856 3.7930344886529745 0 0 0
76 1 1.2927493220345512 11.882291865908128 2.6803896661034012 0 0 0
82 2 2.9721304073951087 11.19028097553965 3.7483633327543555 0 0 0
80 1 4.574541313432317 12.002220391939252 2.7969555548487195 0 0 0
86 2 6.064256171141416 11.056939263547722 3.860175490359395 0 0 0
84 1 7.504090042706994 12.058385840169102 2.9693335108040237 0 0 0
88 1 10.904546585720219 12.402129783216438 2.7428656415801016 0 0 0
90 2 9.314493896630559 11.527531358772618 3.7058540055564038 0 0 0
93 2 12.449497614528036 11.50971552030807 3.7438262688250883 0 0 0
737 1 14.113765702903441 12.29007039287455 3.0135109959258335 0 0 0
98 2 1.526688311335003 13.671934545246806 3.7438100465095583 0 0 0
8 2 2.8744404953828555 16.347901996068387 3.89066237395583 0 -1 0
102 2 4.79484850678665 13.724926740297146 3.774565854447577 0 0 0
96 1 3.1973309067167026 14.544235311829137 3.069772209933797 0 0 0
106 2 7.898330386563212 13.987165304086952 3.663796782646163 0 0 0
100 1 6.232190715361333 14.80590683974697 2.823559032378131 0 0 0
104 1 9.345375809822288 15.033710558829489 2.7928370440148003 0 0 0
110 2 11.040808931296908 14.261577835522838 3.6345997997930986 0 0 0
108 1 12.470344966062644 15.384372237632338 2.973204124902322 0 0 0
756 2 13.860170952095645 14.128133737075022 3.766868605203536 0 0 0
132 1 1.5218502337916675 2.6792400181406544 5.692480521338368 0 0 0
116 1 2.823569680242457 0.2017919639806042 5.794706478801343 0 0 0
118 2 3.1474910536690706 2.0074858412719903 6.738894743467216 0 0 0
122 2 6.189630183258303 2.135430687262422 6.648455416152991 0 0 0
120 1 6.22860477656006 0.3485526441164323 5.714674188149797 0 0 0
126 2 8.857476187590102 2.557051457946006 6.550155906795606 0 0 0
124 1 9.120445763911093 0.8741084628716781 5.552350577950506 0 0 0
129 2 11.995216803384036 2.550865138912882 6.589444061914605 0 0 0
128 1 12.209795210933645 0.8260645257509922 5.718921666454018 0 0 0
134 2 1.5123007194515001 4.403221207946774 6.491674731026836 0 0 0
136 1 4.658563016983278 3.150419850744791 5.68596066287939 0 0 0
138 2 4.547471374291745 4.9267697541057585 6.751175674877169 0 0 0
140 1 7.429127919049581 3.393785579202572 5.606728545377082 0 0 0
142 2 7.249468609628562 5.258985884768592 6.554672018773091 0 0 0
144 1 10.497607309440433 3.289158095545497 5.712915177485396 0 0 0
146 2 10.379061444811162 5.246444516337525 6.554225319361062 0 0 0
789 1 13.609309622224758 3.282992635639631 5.741579888232529 0 0 0
148 2 13.808988485947337 5.048203817097706 6.75989543402082 0 0 0
153 1 2.9189936922680566 5.776445577952763 5.852986001210661 0 0 0
169 1 1.263347997496773 8.032268500352437 5.7846265923567515 0 0 0
155 2 2.986868504068821 7.52064296123998 6.793045525103066 0 0 0
157 1 5.71845191736938 6.148910873919686 5.661588522832976 0 0 0
159 2 6.397011363738678 7.918245346951564 6.512513413969669 0 0 0
161 1 8.894273776057716 6.292469285531487 5.678963374513042 0 0 0
163 2 9.60022902770019 8.076009530343015 6.321650148533127 0 0 0
165 1 12.172222163483143 5.582091313612595 5.572400102312019 0 0 0
166 2 12.531936812223385 7.335786600458096 6.3746670490736825 0 0 0
171 2 1.793951966279468 9.817536055810429 6.28574939069247 0 0 0
173 1 4.549987778914342 8.533860882659267 5.806267743713146 0 0 0
175 2 4.6234061634882115 10.38152320702247 6.732498917302418 0 0 0
177 1 7.831617667872087 8.90717548428455 5.657458335118748 0 0 0
179 2 8.078142304679412 10.75886909887478 6.478493462670233 0 0 0
181 1 11.235514558184185 8.875685095512413 5.593807381266074 0 0 0
183 2 10.967781397666222 10.480158215950372 6.727664298163592 0 0 0
824 1 13.986558415298985 8.60961386846538 5.725373894251972 0 0 0
185 2 14.086085720723336 10.37942023964862 6.5770139719827565 0 0 0
206 1 1.4939284327243314 13.421211328661087 5.644170596358606 0 0 0
190 1 3.063646847442323 11.085496078786294 5.616993025140578 0 0 0
192 2 3.189632070307939 12.883165027419292 6.658940349726855 0 0 0
194 1 6.236070553249069 11.259812248234319 5.725060077966027 0 0 0
196 2 6.643852148003317 13.104673241866337 6.49857773664405 0 0 0
198 1 9.594207050923806 11.624080147829657 5.620140420076309 0 0 0
200 2 9.796048368349622 13.41585482128982 6.422699142698935 0 0 0
202 1 12.502196311915538 11.405532678101078 5.696841954667317 0 0 0
203 2 12.533899296319788 13.219579200602382 6.604782717098579 0 0 0
208 2 1.576231832194027 15.04004420584325 6.5525059015792415 0 0 0
210 1 4.826333396222949 13.68058469654026 5.7648499052605375 0 0 0
212 2 4.623409718634897 15.641251205231463 6.529375931386372 0 0 0
214 1 8.052824729288954 13.99980873726887 5.589750655986633 0 0 0
216 2 7.879971072820275 15.79765584705682 6.640218981833082 0 0 0
220 2 10.580471485621745 16.17984251356212 6.449006995567085 0 0 0
218 1 11.246576459866757 14.390569348490565 5.560693765820469 0 0 0
222 2 13.625957048861066 16.133716559165244 6.6612591819726505 0 0 0
859 1 14.00420170869491 14.272436029691438 5.649901582618465 0 0 0
113 1 1.6678189808591628 1.3619763268237457 8.250514153420303 0 0 0
117 1 4.7160693702477205 1.2267639717434158 7.976743936475362 0 0 0
119 2 3.175825150196382 0.29161864566467416 8.974728753972633 0 0 0
121 1 7.800871605956317 1.3870074311474694 8.059591040701878 0 0 0
123 2 6.241152281873828 0.33004731838724677 8.930823908633274 0 0 0
125 1 11.189831000329498 1.2769013765686814 8.21567538264731 0 0 0
127 2 9.40134118135709 0.5098231646923569 8.827967936026386 0 0 0
130 2 12.642627521523265 0.3764769598330913 9.044020051986086 0 0 0
135 2 1.4147660767015384 3.077894778668581 9.058414307610013 0 0 0
133 1 2.959244203914837 3.915862885167551 8.028856110144867 0 0 0
139 2 4.614578608727597 3.101041323335637 8.857885901012217 0 0 0
137 1 6.190301749563404 4.038374193554045 8.032911087407332 0 0 0
143 2 7.827618884002531 3.2704132541779427 8.92427538540589 0 0 0
147 2 11.030513941077018 3.1247812937215356 9.010996463153004 0 0 0
141 1 9.548621769296117 4.03934895503985 8.201711378664672 0 0 0
145 1 12.619352315842406 3.9390429881423707 8.304560179569847 0 0 0
791 2 14.102430452211564 2.9509484213094885 9.091777038298835 0 0 0
156 2 2.6701412040144907 5.60258736975954 9.118370330714635 0 0 0
150 1 1.349953799669756 6.8869035149362565 8.371449672223433 0 0 0
154 1 4.254176105498949 6.526073092285993 8.360048618595753 0 0 0
158 1 7.471054248192875 6.774465335516098 8.154042516711549 0 0 0
160 2 6.053226434081958 5.835655677500456 9.036533975233084 0 0 0
162 1 10.82290837937063 6.864341411034386 7.893894895224601 0 0 0
164 2 9.202905074927784 6.0583276641516335 8.74263857119041 0 0 0
167 2 12.360673146787507 5.826873821828493 8.880746067409508 0 0 0
807 1 13.977705964766555 6.8135887461003755 7.983352189023836 0 0 0
172 2 1.406557905496359 8.583367755542518 9.184292754085225 0 0 0
170 1 2.9132507423027807 9.37157777334786 8.096952774138185 0 0 0
176 2 4.45304374474973 8.385484127466174 9.024116720963216 0 0 0
174 1 5.949963644284196 9.245306438664104 8.188163967496633 0 0 0
180 2 7.76880456074516 8.685380436528563 8.806875389638726 0 0 0
178 1 9.313979855171995 9.599574479622948 7.9126373614533865 0 0 0
184 2 10.974079570265882 8.764437562542343 8.678169650151156 0 0 0
826 2 14.109568217554445 8.645638875659099 8.784783297200379 0 0 0
182 1 12.596339583672094 9.849508680471112 8.190142302699646 0 0 0
193 2 2.830623784535692 11.13941941223273 9.008364770091035 0 0 0
187 1 1.5300449109124188 12.333847208826594 8.149264587710128 0 0 0
191 1 4.345278620628009 11.981215520847895 8.247149929592187 0 0 0
197 2 6.050752582745592 11.115886298084071 8.813135470119764 0 0 0
195 1 7.586089670043991 12.047090955169319 8.163116890464607 0 0 0
199 1 10.898578090638908 12.314472305454911 7.985615734808442 0 0 0
201 2 9.348416803476415 11.328646645912956 8.854184957127964 0 0 0
204 2 12.56586220146303 11.621086199953155 8.937587989705484 0 0 0
842 1 14.219575713361845 12.294336300388874 7.993116726134916 0 0 0
209 2 1.6514104349995988 13.954886687875955 9.036807260504878 0 0 0
213 2 4.78558303559113 13.876555857451699 8.85718989532818 0 0 0
207 1 3.180522179579951 14.716990652630576 7.973880314475219 0 0 0
217 2 7.875130960369478 13.867207828708638 8.893166844703652 0 0 0
211 1 6.3011285615620025 14.778898901461623 7.936210790184857 0 0 0
221 2 11.05573378684915 14.04751788574917 8.918566092296267 0 0 0
215 1 9.461060275505876 14.863142547413926 7.968259958389456 0 0 0
219 1 12.77795273232252 14.787758682160726 8.20946365166995 0 0 0
772 1 14.326063155462549 1.1132694467809583 8.310341064376338 0 0 0
861 2 14.297720170934209 13.9402296303223 9.079061698983528 0 0 0
441 1 13.52763149712889 14.329569037589476 18.902096962932983 0 0 0
229 2 3.315386910795874 2.016044475728026 11.900073893088742 0 0 0
227 1 3.4602730893620315 0.28691394337551895 10.942409478448235 0 0 0
233 2 6.125523853335865 2.4352896802302517 11.651158600012248 0 0 0
251 1 7.949219347777348 2.8478581992356533 10.809586313423427 0 0 0
231 1 6.259959716096481 0.634383281196453 10.855510591797296 0 0 0
237 2 9.664835815142775 2.146821841268826 11.851634168183113 0 0 0
235 1 9.366850546078744 0.4373463422215525 10.774691032620007 0 0 0
240 2 12.681403733250672 2.0250260647816516 11.8378583525529 0 0 0
243 1 1.834159946436969 3.103980056414515 10.962882864647304 0 0 0
245 2 1.8582408306144198 4.895635524157143 11.922979039978243 0 0 0
247 1 4.540251501875212 3.2076588790315634 10.717696740706304 0 0 0
249 2 4.9948210794023895 4.958479076972863 11.830719903722368 0 0 0
253 2 8.057317547531566 4.689552877180624 11.685402994569156 0 0 0
255 1 11.278471007831481 3.203761113314809 10.97759649570576 0 0 0
257 2 11.008363315079928 5.077282252165171 11.62215303550985 0 0 0
259 2 14.002749706519777 5.020505022352365 11.923408310483698 0 0 0
894 1 14.111809666418267 3.230801698535039 11.013969950430592 0 0 0
262 2 0.36417765029091376 7.71168790908922 12.055941031903505 0 0 0
264 1 3.325561158379046 5.752258694215785 10.93026709028395 0 0 0
266 2 3.4352762565337702 7.5787708139375205 11.991887186127027 0 0 0
268 1 6.623192397589545 5.971022414263728 10.88593776373159 0 0 0
270 2 6.40094307421769 7.731208124212935 11.7345669533233 0 0 0
272 1 9.347684087217866 6.063365823092732 10.810740627253397 0 0 0
274 2 9.737827520835229 7.959778288451843 11.307270886736532 0 0 0
276 1 12.657087800145572 6.04862601550961 10.899149776315953 0 0 0
277 2 12.830645800181273 7.952254623036728 11.300602961560655 0 0 0
280 1 1.9574285083851037 8.669987133157738 11.07295888829522 0 0 0
282 2 1.5986954668868776 10.47111425637099 11.9506257671975 0 0 0
284 1 4.8120809814906575 8.546873997822527 10.866100555522722 0 0 0
286 2 4.598742781655394 10.290838586237516 11.751730849905544 0 0 0
288 1 8.005309950796935 8.550458538541985 10.695572993168435 0 0 0
290 2 7.9615644592625925 10.453587640331744 11.604011283240503 0 0 0
305 1 6.324881450589426 10.851135399077156 10.67359092213899 0 0 0
292 1 11.307500778359088 8.877651127491589 10.540153320983837 0 0 0
294 2 10.978868602134593 10.483804140766319 11.671798385492872 0 0 0
296 2 14.135124298816612 10.462814609868646 11.671999855596225 0 0 0
301 1 3.062751149800815 11.235482381939724 10.92506857585141 0 0 0
303 2 3.2498095214483 13.0468225997799 11.92937009934109 0 0 0
307 2 6.187000729699868 12.649214938843093 11.318234312417903 0 0 0
309 1 9.501966963351586 11.39651588846636 10.753218608214103 0 0 0
311 2 9.299344466391968 13.1160757142995 11.803059414597627 0 0 0
313 1 12.622520766141104 11.352891970634092 10.84178105743489 0 0 0
314 2 12.542651811523024 13.081278035971062 11.823751342401865 0 0 0
317 1 1.5980707762902604 13.701747543419307 10.973392789484112 0 0 0
319 2 1.8728077464542652 15.539732875759876 11.935455712958632 0 0 0
321 1 4.8139015724931085 13.925127463407899 10.775729289683746 0 0 0
323 2 5.091082234925436 15.577333857995974 11.891554183104393 0 0 0
325 1 7.700570280890729 13.854333799507803 10.926171229099165 0 0 0
327 2 7.773501296831358 15.82182170297113 11.671791897717362 0 0 0
329 1 10.979303224401376 13.83226114688303 10.869146708024166 0 0 0
331 2 10.889471643811367 15.673556311866443 11.742051258943999 0 0 0
239 1 12.708841864090937 0.20127695477345497 10.982912117390248 0 0 0
224 1 1.864357013434545 1.2048948103927193 13.296473561929195 0 0 0
226 2 0.35264301456743724 16.392213842144578 14.26100830950894 0 -1 0
228 1 4.938304219303761 1.3323318720407413 13.294442963167217 0 0 0
230 2 3.4185684015185926 0.2667039749343735 14.13321812316654 0 0 0
232 1 8.376266427261095 1.0134881058224134 13.256759921920272 0 0 0
234 2 6.584820076752686 0.49513926127579216 14.136748208660139 0 0 0
254 2 8.05841545402332 2.905486884398647 13.961408859245482 0 0 0
236 1 11.27134362124609 1.0481132129333242 13.29649353317222 0 0 0
352 2 13.098070212567595 16.160113523496378 19.61346147649183 0 -1 0
246 2 1.8988871885996426 2.982782672459684 14.315252582925057 0 0 0
242 1 0.4198023129077558 3.9077562008722233 13.330778921397052 0 0 0
250 2 5.022841443946491 3.1395997485107694 14.138273455447887 0 0 0
244 1 3.3845139332645706 4.0098216688991135 13.289044134492215 0 0 0
248 1 6.565823992371324 3.9567179043943272 13.143877288763997 0 0 0
271 2 6.713450578265097 5.6203649816420915 14.259506293413471 0 0 0
258 2 11.189030783967665 2.9818508465157287 14.085333650891682 0 0 0
252 1 9.522133965216977 3.9651735471849405 13.026910954798687 0 0 0
275 2 9.90417635530308 5.4536174138549445 14.331938766440373 0 0 0
256 1 13.04218674285009 3.5959512064150196 13.513211391283502 0 0 0
278 2 12.99171906788492 5.349519657389513 14.284852455310158 0 0 0
263 2 0.43971109992812635 5.647852186337544 14.257315554834062 0 0 0
261 1 1.9864436531444731 6.5820029392305 13.316768207194356 0 0 0
265 1 5.152626906051379 6.534874503173689 13.28851406098038 0 0 0
267 2 3.5879521803471017 5.709065223806106 14.302869287606965 0 0 0
269 1 8.364270042128112 6.556217500905318 14.17601326158313 0 0 0
273 1 11.535082106654379 6.159133140019985 13.436809337071402 0 0 0
295 2 11.663818727812645 8.037532885715288 13.987474063011147 0 0 0
283 2 2.391825365809257 8.408352426894687 14.2478195985597 0 0 0
279 1 0.740967253069705 9.219643999192055 13.561635920277137 0 0 0
287 2 5.590909996740957 8.293682138770853 14.207984004878156 0 0 0
281 1 4.0192336333069285 9.221015642228652 13.49119857798661 0 0 0
304 2 3.9523218375993205 11.026154202518747 14.35037485519744 0 0 0
285 1 7.113157185672874 9.245727141145403 13.281248000307349 0 0 0
291 2 8.583207345968544 8.464694376947211 14.289953795004356 0 0 0
289 1 10.179789023107501 8.973965886275328 13.142650167427844 0 0 0
312 2 9.988329215023656 10.869518182187475 14.06413210834022 0 0 0
293 1 13.323778023803268 8.930314053411543 13.164080138102028 0 0 0
315 2 13.211515052205252 10.688717290784256 14.030787219940434 0 0 0
300 2 0.6936869808168689 11.05660526143483 14.280741986425461 0 0 0
298 1 2.4077019051864097 11.799804334735747 13.57510845222204 0 0 0
320 2 2.0903375003418296 13.667859470629754 14.23526632968516 0 0 0
302 1 5.248703444545931 11.961214924577682 13.060187659828706 0 0 0
308 2 6.831124791107602 11.063723192026233 14.040336509784074 0 0 0
306 1 8.463736542078351 11.853364396232164 13.305566855937332 0 0 0
332 2 11.53546073345481 13.534229360732088 14.238272523009925 0 0 0
310 1 11.651058397542272 11.775663590815045 13.360147368343378 0 0 0
316 1 0.5366641091704522 14.583723020344374 13.458544750488484 0 0 0
318 1 3.571649368016987 14.747905170136555 13.231311320293278 0 0 0
324 2 5.172032286923872 13.749084676357752 14.012908889466255 0 0 0
328 2 8.18196161895151 13.682127348713347 14.087116525213997 0 0 0
322 1 6.6836480046057645 14.961560178380763 13.361735017139017 0 0 0
238 2 9.778682190151015 16.244116220933233 14.142817026100728 0 -1 0
326 1 9.994578769804848 14.390157898859472 13.403002301742138 0 0 0
241 2 12.909972968243459 16.275771455575192 14.127693161155594 0 -1 0
330 1 13.150349468820323 14.328211236340357 13.378790687500986 0 0 0
334 1 0.3850867531704968 0.19562882707156248 16.188985743186965 0 0 0
336 2 0.5946601919854759 1.980737572767361 17.159344827323 0 0 0
340 2 3.511928215615085 1.7392943138439025 16.854677788924526 0 0 0
344 2 6.309464737125864 2.204227159879562 16.91958149839021 0 0 0
342 1 6.662511524394546 0.43530704752136185 16.043472165364378 0 0 0
348 2 9.532350539013695 2.0460364530983557 16.87577465786477 0 0 0
346 1 9.801006696507475 0.22770192143559598 16.066925012488824 0 0 0
366 1 11.201151831941557 2.746533895624679 16.028504787406735 0 0 0
351 2 12.615710101773393 1.7381952948822412 16.98383021835981 0 0 0
354 1 2.0699418052118705 3.0327011474906502 16.265694116069692 0 0 0
356 2 2.2830485971224386 4.709444176202483 17.32250510606144 0 0 0
358 1 4.811132698625968 3.1357532557779026 16.057223493214238 0 0 0
360 2 5.199803258644067 4.774443515836078 17.172615095017328 0 0 0
362 1 8.001914205295169 2.8830008485093814 15.986989480870959 0 0 0
364 2 8.353010291081333 4.567525870535269 17.088787232823933 0 0 0
379 1 6.8315798867381545 5.5683379641085535 16.19795671918649 0 0 0
383 1 10.054819633325781 5.290587714296812 16.19253641371898 0 0 0
368 2 11.563199916012184 4.3300039748666475 17.253579151269662 0 0 0
387 1 13.105424328618714 4.8390936023685285 16.08685865860008 0 0 0
371 1 0.96194584694999 5.67702999205919 16.14501205296623 0 0 0
373 2 0.7530742337170035 7.43067756320329 17.093477420805318 0 0 0
391 1 2.362737285572915 8.175580421346275 16.182163482693564 0 0 0
375 1 3.695499277038341 5.714370160166584 16.234390919261102 0 0 0
377 2 4.217945529064486 7.49883909278097 16.907770160172618 0 0 0
381 2 7.030646869031634 7.3864651915005854 17.133183997726942 0 0 0
385 2 10.22281708773538 7.241724535407073 17.015478052971424 0 0 0
403 1 11.806855478417754 8.052434413214742 15.940365723980088 0 0 0
388 2 13.198869763803305 6.660576729574459 16.83349895073932 0 0 0
393 2 2.3425845543843784 10.02630714232065 17.020216860421908 0 0 0
395 1 5.706840356580028 8.375649446348708 16.052841781193138 0 0 0
397 2 5.4815144886995295 10.035340893928375 17.09854594051683 0 0 0
412 1 3.9990636179429693 11.106236945036514 16.230580798858714 0 0 0
399 1 8.62134400153981 8.420401703629356 16.244509892345203 0 0 0
401 2 8.206922369310465 10.308870685242784 16.936381091196633 0 0 0
420 1 10.021960720568618 10.792964899475894 16.029658123821918 0 0 0
405 2 11.59102158302722 9.776961093328065 16.968444115842225 0 0 0
424 1 13.256430101952454 10.331583872666226 15.931677563706138 0 0 0
408 1 0.6648136188995626 10.906822486252954 16.19057254581929 0 0 0
410 2 0.6460972131025732 12.705221453356202 17.152703969067513 0 0 0
414 2 3.758389384011842 12.940414439671928 17.275622364852953 0 0 0
416 1 6.832159470395057 11.255761455992078 16.02344190879247 0 0 0
436 1 8.405681426630117 13.557768057370872 16.097680270516342 0 0 0
418 2 6.59665143681302 13.065540253725057 16.906682420525854 0 0 0
422 2 10.02433112984593 12.647965889995906 17.033259340460788 0 0 0
440 1 11.746144133086796 13.58523109754947 16.190836350428288 0 0 0
425 2 13.238658280299454 12.093571739130885 16.79549962870693 0 0 0
428 1 2.211578996556044 13.763524703610358 16.235377549666875 0 0 0
430 2 1.914909615974047 15.58725409030413 17.140918305108553 0 0 0
338 1 3.5151397312613626 16.17171136192456 16.029007061824647 0 -1 0
432 1 5.067115960877828 13.817389885461932 16.004750433319373 0 0 0
434 2 5.176396037235933 15.605841280424809 16.970945083612413 0 0 0
438 2 8.16917088551494 15.508128040573009 16.816388421826936 0 0 0
442 2 11.191561840287855 15.389380424079345 16.968491458967275 0 0 0
350 1 12.789302927331685 16.20356466264437 16.06135964770643 0 -1 0
335 1 2.148697764732219 1.1885372784152868 18.472270768587073 0 0 0
339 1 5.137767929624834 1.139173325969512 18.353279237968536 0 0 0
341 2 3.724320326726333 0.2734892642829614 19.35063549822234 0 0 0
343 1 8.56968203285838 0.8215712448540331 18.44699632777231 0 0 0
365 2 8.272417810455464 2.648391013965306 19.301375111088973 0 0 0
345 2 6.826734358758097 0.17512828939881303 19.17199515633293 0 0 0
369 2 11.38978687762004 2.507338897244566 19.37363877861261 0 0 0
347 1 11.6669628700999 0.675455516123169 18.609235393360663 0 0 0
357 2 2.1320803641365 2.9854645465895717 19.44705358018431 0 0 0
353 1 0.43602586352452205 3.834309228185643 18.647796108829613 0 0 0
374 2 0.46763834971387275 5.557868725155315 19.614456025227515 0 0 0
355 1 3.7008637311227712 4.184284090407875 18.897792982999977 0 0 0
361 2 5.161809623298958 2.869540830560401 19.448241276103243 0 0 0
359 1 6.761609815647539 3.704831634755945 18.43882497484232 0 0 0
382 2 7.010667733966803 5.575328164025761 19.321551581496223 0 0 0
363 1 9.87672461064104 3.5819826527585588 18.458214426190864 0 0 0
386 2 10.022861193646436 5.348450101451417 19.375507665103015 0 0 0
367 1 13.093558339282716 3.2078982972862864 18.606806814818462 0 0 0
389 2 13.061064660838818 5.018880041766318 19.56216538908686 0 0 0
372 1 1.9252485371436145 6.4256854029180595 18.710593471684813 0 0 0
376 1 5.459419508979334 6.5809081935671845 18.496495775482252 0 0 0
378 2 3.7063655297583615 5.976333569075304 19.588525879153778 0 0 0
380 1 8.532938056594281 6.38371384576808 18.35853172750088 0 0 0
402 2 8.662907444058016 8.243886388510733 19.312990434297532 0 0 0
384 1 11.649738526895458 6.158029239986263 18.541024564873243 0 0 0
406 2 11.901950336641969 7.915557965002356 19.51109310265046 0 0 0
394 2 2.377709240551237 8.261958313232352 19.328489728842026 0 0 0
390 1 0.7639567133164773 9.104235619170215 18.479559055229466 0 0 0
411 2 0.8843979585650088 10.784930903005487 19.476404562947774 0 0 0
398 2 5.45878940349871 8.402784958688393 19.421740407470146 0 0 0
392 1 3.9150382229818885 9.113764857251946 18.362882504316815 0 0 0
415 2 3.895822504788168 11.027137151568422 19.3451277027748 0 0 0
396 1 7.108462105913785 9.276396927089364 18.52457498366937 0 0 0
423 2 10.282971812636909 10.669948635054615 19.352121565999216 0 0 0
400 1 10.419291543600906 8.773045001985556 18.459997575699454 0 0 0
404 1 13.24240115027347 9.150112315461351 18.684969479486746 0 0 0
426 2 13.34695337577926 10.845044212239703 19.503061005999516 0 0 0
409 1 2.2595569135705578 11.850576207677472 18.48469604726243 0 0 0
431 2 2.2618794973673944 13.64956446215518 19.48536840936769 0 0 0
413 1 5.4959085544452675 11.927413017945254 18.468655743554425 0 0 0
419 2 7.103064592989196 11.104971861369016 19.325469289741726 0 0 0
439 2 8.562513401981235 13.54790081594144 19.221244715085376 0 0 0
417 1 8.826813906421437 11.623522581216433 18.486725598350425 0 0 0
443 2 11.911309439695206 13.357262850344775 19.36016291474755 0 0 0
421 1 11.835445505701825 11.572966963552565 18.31612775653187 0 0 0
337 2 0.7298771609835575 16.309368976020263 19.50089605114366 0 -1 0
427 1 0.7140126243243073 14.464098390817657 18.627635143887538 0 0 0
429 1 3.6761993199837733 14.739928146072264 18.531872546990815 0 0 0
435 2 5.403594815926937 13.800530461205899 19.161491480846 0 0 0
433 1 7.016367472790672 14.530151754498826 18.363676736554098 0 0 0
437 1 10.347404082953465 14.142766971311964 18.504324638253088 0 0 0
349 2 9.99884676181374 15.953927041672028 19.215011522236413 0 -1 0
225 2 0.30353142410702816 2.0511497866114428 11.963597363223434 0 0 0
444 2 14.1609648313584 15.262422634459826 17.124600555609014 0 0 0
447 2 0.6609287345555532 1.7102932384661809 22.38867377847549 0 0 0
465 1 2.1325349513914604 2.712870967221453 21.413821621955176 0 0 0
449 1 3.4220394673807673 0.23081041650312656 21.181906588641684 0 0 0
451 2 3.7007129453431604 1.870333544248926 22.306336966260172 0 0 0
469 1 5.315271041808349 2.6258892255772937 21.33374377669714 0 0 0
455 2 6.976452798001767 1.8129142300866554 22.311123365420443 0 0 0
473 1 8.438300166161467 2.6371134681200803 21.222888141261834 0 0 0
453 1 6.622635277731395 16.268574181967246 21.105710076050496 0 -1 0
459 2 9.851878916897032 1.3030219300030657 21.94039404428005 0 0 0