LAMMPS data file via write_data, version 22 Jul 2025, timestep = 20000, units = metal

1296 atoms
2 atom types

0.29690381307205843 28.404096186927788 xlo xhi
0.1714174956513138 16.399112507948992 ylo yhi
-0.08402331213026049 31.195907312131247 zlo zhi

Masses

1 69.723
2 14.007

Atoms # atomic

738 1 13.948150228086233 10.695113588989583 2.217600421185097 0 0 0
769 1 2.564375739444182 16.18387309816337 2.850797613255751 1 0 0
579 2 2.638736086110535 0.8539748263582931 1.0035644609530665 0 0 1
753 2 0.34173206244083953 4.013312263403355 3.231510190032102 1 0 0
571 2 9.079467970726698 16.29800275680869 1.0290407164045514 0 -1 1
587 2 7.635980171717542 3.330268805632672 0.327006408341459 0 0 1
216 2 7.690037947288247 2.4210318046690418 3.9863543848274605 0 1 0
614 1 2.7044202567174267 9.515221544008355 0.24595893685911113 0 0 1
1211 2 13.583515002625859 2.7094420553220235 1.0935578639805295 0 0 1
733 2 0.485422535972125 6.13875472838029 7.765293703999127 1 0 0
96 1 4.339435987052279 2.675258011644046 2.262101955925161 0 1 0
1246 2 13.47140370753643 8.007216285948717 0.9110912426219934 0 0 1
46 1 5.831294931756229 5.73574706445883 1.9711938674790295 0 0 0
608 2 8.83854659243261 5.513803117087966 0.13160159692873616 0 0 1
50 1 8.809763415563642 4.244277872993659 1.7987233331529384 0 0 0
604 2 6.044525364013292 5.825835299464332 0.18481515637208698 0 0 1
611 2 12.387348645592372 5.322095849230638 0.3590790611689261 0 0 1
33 1 14.31179150567841 2.8758008188644224 3.197347940479351 0 0 0
62 1 2.8542842491042353 7.097170650091708 2.1878967511338487 0 0 0
187 1 4.389086527815681 14.548845848739255 9.400163799616111 0 0 0
742 1 14.010318772539916 12.013200518043183 4.992030243120528 0 0 0
620 2 3.921739841066494 7.872929298095226 0.441024142434218 0 0 1
47 1 7.6858866726661725 8.393142088018362 1.8628307221688138 0 0 0
594 1 0.9564164929495436 6.261607013003567 0.03117970486862016 0 0 1
73 2 10.113282550257965 6.105208004571219 2.081735345608324 0 0 0
583 2 4.939468761321625 2.7620425223283918 0.42330721198285876 0 0 1
157 1 11.393580826260312 7.859841065333548 2.3306452814548235 0 0 0
754 1 13.773208268913685 14.91756148923155 5.439920339522798 0 0 0
559 2 0.9104678050964197 0.7771643434484947 3.5228209710592426 0 0 1
616 2 1.181063876078049 7.84873733870168 1.0748865683203375 0 0 1
92 2 14.113831214504403 13.830914506491784 7.7021171486173925 0 0 0
589 1 12.09688333879361 3.6042430759731756 0.197467238506506 0 0 1
624 2 7.1316417837079245 8.370523127848022 0.07660833703647234 0 0 1
645 2 9.02971701413689 10.477282907892787 0.15339678383328917 0 0 1
193 2 4.798415814241521 15.872334424315317 8.266378949000204 0 0 0
91 1 11.985202700080043 10.31320150401384 2.2991496623584657 0 0 0
648 2 11.405333036941556 11.094808139007517 0.3818209179952138 0 0 1
719 1 13.379205587216955 7.639069499686279 3.1816230901599623 0 0 0
637 2 2.68786253153848 11.598479867381387 0.6819086367330609 0 0 1
181 1 10.5826730327369 11.846226558628967 9.969195847038545 0 0 0
641 2 5.776029083836532 10.97478457234838 0.4906179953856825 0 0 1
635 1 4.427534728444083 11.853511829591175 0.011076813728211342 0 0 1
99 1 6.981110585730958 13.864005609731747 2.23555843053542 0 0 0
751 1 1.1414422854091197 5.860922879487205 3.453776927357923 1 0 0
109 2 10.436823105040284 13.802526641883286 0.3555561092819447 0 0 0
107 1 1.237500445681777 2.934609686923785 1.712154190149294 0 1 0
17 1 13.804766558200976 13.771976538189818 2.9212685512139136 0 -1 0
27 2 4.129350538549984 1.576162447872606 9.663849445166258 0 0 0
97 2 1.3766768621222147 14.482174062781779 0.7897948266804118 0 0 0
591 2 10.195567753096034 2.929963033990701 0.6281885211718188 0 0 1
657 2 4.032827685263976 13.518521730902721 1.1878223017551046 0 0 1
11 2 6.114173082851299 16.212040366620833 0.17091613338340597 0 -1 0
118 2 7.547359797159335 4.917175926886987 10.026334949686111 0 0 0
2 1 5.86393832393852 16.39089001409681 2.031144554561342 0 -1 0
661 2 6.910067953144825 13.526849917759465 0.3878483944348676 0 0 1
843 1 13.102843088656037 13.609373864882741 10.177120021719185 0 0 0
30 1 8.978005473115937 15.554684896576285 3.019097295256545 0 -1 0
105 2 11.978231876053218 16.257854870284714 0.9174154484233357 0 0 0
805 2 1.7422712210199236 12.678105802745767 9.017829599869478 1 -1 0
45 2 2.585903270856554 3.119988415419146 3.198520982997564 0 0 0
9 1 5.952046499330524 3.4913052608478443 4.394457248012817 0 0 0
110 2 7.06584382864587 16.208294190189033 6.150036433910626 0 0 0
653 2 7.172953666755697 2.3420398142734284 2.910481420758294 0 1 1
15 2 10.435163523682675 0.34572515968143214 3.6181082428523546 0 0 0
13 1 11.475120671024019 2.1097806057439388 3.806226597221079 0 0 0
859 1 12.063425545871441 15.733681562204834 3.1712317589707206 0 0 0
42 1 2.6775229426229177 4.877375034820941 4.124271682975687 0 0 0
600 2 4.3735836693327546 4.83899868875108 2.8433512189846866 0 0 1
31 2 7.162879320806261 4.837008983915915 2.8365816231497107 0 0 0
140 1 7.362844484121122 6.616470729519246 4.261009849555714 0 0 0
36 2 9.205529104066724 4.92768866567122 4.225927624573963 0 0 0
35 2 10.434888850238769 3.2611682815780263 3.0128042916399 0 0 0
108 1 14.023462603154961 4.333349224090695 5.186272895144777 0 1 0
567 2 13.472463898072128 1.221320746912705 3.4759780599720327 0 0 1
7 2 1.811945997281462 6.350432537883498 5.293520726358466 0 0 0
68 2 5.679898854590838 7.429853594883923 2.972001312650267 0 0 0
820 1 4.9108218244357165 5.4272974017620825 5.387214943305107 1 0 0
155 2 7.1906375693313835 7.765336065674877 5.996741848849508 0 0 0
70 1 9.253439726912726 7.675502201659261 3.284540887940629 0 0 0
54 1 11.942080406494394 4.994020283492022 2.2539693312098694 0 0 0
51 1 11.096039585480582 7.174593575571044 6.021670360302798 0 0 0
55 2 13.097718133529021 5.891091930484739 4.1690402892911 0 0 0
44 2 1.0975872988589843 9.474380250952239 3.512073410629494 0 0 0
39 1 4.203544461561185 7.915320880458948 3.903256668802692 0 0 0
101 2 4.263513765938349 9.843249787329697 3.0742057832372445 0 0 0
52 2 6.898587894637439 9.869177959287338 2.5485311443685266 0 0 0
66 1 8.653606687460426 11.01779417217341 1.8429239949718854 0 0 0
48 2 10.460078398620789 11.33106305504103 2.789170240011433 0 0 0
74 2 12.043267555014209 8.892613199022145 3.862152671391303 0 0 0
827 1 12.751975663555505 9.691117327800534 5.813498755858962 0 0 0
79 1 2.539940051383934 10.6345556727487 2.4473759823761 0 0 0
732 2 1.8581982352043578 12.372370613464902 2.973421603157828 1 0 0
1192 1 13.134696859955506 0.9847889485668053 0.012743235261061227 0 0 1
85 2 4.226880025660566 12.310314756124223 3.3633389727909786 0 0 0
80 1 4.986166191263107 10.212571565547231 5.237652566381101 0 0 0
5 1 5.474399955716422 11.08390008890316 2.4177013078565146 0 -1 0
106 2 8.322134211993475 12.602132580753521 2.3963261797965276 0 0 0
102 2 6.267656043619917 11.935915132856497 6.118117532142959 0 0 0
103 1 10.248737096549016 13.582301762331523 2.30806758219665 0 0 0
93 2 9.59971535916721 12.498721161364504 5.284113358273925 0 0 0
651 1 3.155248987773844 15.145700340442582 0.35334846255161295 0 0 1
667 1 11.705284959427495 13.045158770630069 4.904900950682039 0 -1 0
1291 1 0.9176487767541167 14.161166323620511 2.4601849982094595 1 0 1
718 2 1.2152151378616562 14.948432516924274 4.7220375769491305 1 -1 0
76 1 4.392146399736071 14.131075381747765 3.045839275009436 0 0 0
43 1 5.398343804556543 0.5317288602227309 5.101233237859924 0 0 0
81 2 4.399500653011404 0.2611446178750003 3.1722986593177516 0 1 0
115 2 4.186081402996605 14.949845664450763 5.823196180400058 0 -1 0
561 1 7.211793607350932 15.202006117531939 4.653439884302506 0 -1 1
12 2 5.968016788502207 13.764986218423115 4.458118702596567 0 -1 0
86 2 7.257837253486176 15.411100511851943 2.7966395694928927 0 0 0
759 2 11.681126314173094 14.026658457963682 3.108236479720166 0 0 0
22 1 2.708889114081268 1.5732077112133953 5.317641011503847 0 0 0
188 2 1.0194791753710146 0.48142654559937387 6.806220321278121 0 1 0
134 2 4.813227719110067 2.402425525292202 5.529564539212613 0 0 0
207 1 3.206726955932476 16.107656818129694 7.067964346632379 0 0 0
251 1 8.311755620379163 1.353281558451489 5.966446179555927 0 0 0
122 2 7.403330994262677 2.6275977948037985 7.568304816301451 0 0 0
845 2 11.855909765676927 1.4515020518256347 5.671474405753521 0 1 0
146 2 9.880949277191728 0.4972132409931376 7.110860124620406 0 0 0
760 2 13.69341545780946 1.7577611592105569 7.163086865572877 0 1 0
88 1 11.81055322649143 2.8762152170663238 7.294872767805907 0 1 0
1223 2 1.3448494155996258 3.2261760715731533 5.9138467906741425 1 0 1
789 1 1.6732288246018165 4.8622475905906155 6.988201055454806 1 0 0
26 1 3.1188586688655926 2.5683381845043507 7.149846791618691 0 0 0
152 2 3.5745163725647657 4.599608889331467 6.206863036493842 0 0 0
53 2 7.028405973240905 4.752922318121563 5.533491826185028 0 0 0
6 1 6.585839575005718 4.169547643748932 7.271977327339699 0 0 0
212 2 9.458053916880544 3.6011187991357057 8.357715147369019 0 1 0
14 1 11.469504781983131 4.851419400090335 5.00419728982193 0 0 0
165 1 9.70283843257813 3.5236205294164913 5.868959276320322 0 0 0
200 2 12.649664178567097 4.354127294655532 6.37498348481082 0 1 0
740 2 11.119199235191909 14.165873716441626 9.69238026370385 0 0 0
61 2 2.3786104268850687 8.285183085731555 6.671336002084653 0 0 0
139 2 4.512780286117611 7.146732689202748 5.434006069179439 0 0 0
194 1 4.099641249381218 7.3556032943109475 7.216617264242623 0 0 0
176 2 7.4689553115853995 5.822733898724741 7.634944071786857 0 0 0
72 2 9.987469756084344 8.557337085712275 5.0798593171473385 0 0 0
721 2 9.972119041546167 5.651485690764087 6.410933171749691 0 0 0
63 1 8.979178576189547 7.398568496730258 6.90837563941323 0 0 0
138 2 11.926758367621337 7.082020377535483 7.642464950141978 0 0 0
10 1 13.84589527650569 6.909519499383458 7.732037616943135 0 0 0
59 1 2.706656844423914 10.094743561445773 6.667634828653419 0 0 0
206 1 1.696355753827719 8.079406698786046 4.672938384182188 0 0 0
196 2 4.807400031581324 9.216668080537938 6.804686558057536 0 0 0
214 1 7.020334812197472 9.459556898851952 4.446540234340418 0 0 0
90 2 8.472440329669244 10.37697673625773 5.944546340545916 0 0 0
198 1 7.9233754895719795 10.522437024888879 7.592129577666676 0 0 0
179 2 7.925236944659411 8.66524236893897 8.802019563042776 0 0 0
100 1 9.81718202073501 10.559178440716591 4.498168072040532 0 0 0
82 2 10.9097578196962 10.544661551958951 6.4735826784209065 0 0 0
741 2 13.443802141449519 11.657203298556132 7.04069653947965 0 0 0
75 1 2.9212277205011308 12.798831179505072 4.82008943020467 0 0 0
64 2 2.6604483047618315 10.964553890171182 5.007895433273249 0 0 0
83 1 5.07880607745906 13.271869993177262 6.691434593568261 0 0 0
150 1 5.079399629992088 11.107662715598108 7.755565427771224 0 0 0
60 2 2.618898790187681 13.36600873937495 6.750332704224901 0 0 0
87 1 7.62645393768841 12.196782717202925 4.322775263612492 0 0 0
94 1 9.204056312939148 13.716136462396157 6.579044101841028 0 0 0
737 1 11.454108410310536 12.12920453685127 7.87680001105637 0 0 0
23 2 2.508450513801402 5.477922439011317 1.1565098632209752 0 0 0
1281 2 13.336134224654964 13.625676518016924 0.6537233315933866 0 0 1
215 1 6.3714921542874166 15.08726141437921 7.315367134207212 0 0 0
755 1 10.775337750641707 15.88403997216787 5.717650164262141 0 0 0
220 2 9.122162608496994 15.019798185556237 5.20472338748829 0 0 0
84 1 12.35802963407117 14.478110857257642 8.073031844667906 0 0 0
18 2 12.128814064077506 14.25617395401988 6.248025055489144 0 -1 0
133 1 1.7396892915881637 3.413984577515798 9.492924948393668 0 0 0
116 1 10.300605306582403 3.3395148409024555 10.254124346666845 0 0 0
136 1 6.044008848803976 0.44365009883273726 9.383623317070914 0 0 0
104 1 9.204223242268798 1.8516053225156084 8.48852510929054 0 1 0
123 2 7.981504546810373 0.5331605794144518 9.302973147941897 0 0 0
221 2 11.117810623307905 1.839975574192344 8.6824340897754 0 1 0
758 1 11.720638633256545 0.4345848804232221 9.547173529795744 0 1 0
218 1 8.835028317699678 14.660117958758553 9.437024316132181 0 0 0
806 2 2.8108186159008626 5.017419305904024 8.725596136018012 1 0 0
189 2 2.490054229715834 8.426332816867047 9.441604578898575 0 0 0
28 2 4.793948968143274 3.1358806364709215 8.049390067305678 0 0 0
153 1 4.612740136854241 4.957463639335474 9.305224767548495 0 0 0
25 1 9.143489907343225 5.520402633275488 8.835123047358081 0 0 0
65 2 11.384838639466635 5.144316550250789 9.743244650548283 0 0 0
565 1 4.3646849931524 0.9709057207504167 0.01803065899690325 0 0 1
802 2 1.7189431150442076 1.7731178891905321 8.838878909973324 1 0 0
628 2 10.897904751806648 7.971047001662002 -0.015339803432792416 0 0 1
260 1 0.9569035000433197 7.991013781297575 7.904281498611227 0 0 0
128 1 14.18766781724343 0.8396753671482271 9.010452745936654 0 0 0
736 2 4.980583603170803 6.858114058182119 9.20306953882763 1 0 0
154 1 6.406034568737414 7.611305743198386 8.276973714813638 0 0 0
261 1 2.195848070685806 6.483625500920807 10.093510088321414 0 0 0
159 2 9.96895812101198 7.655048824976283 9.694691310174315 0 0 0
185 2 12.594017789452733 11.236782746147707 10.117747926497337 0 0 0
141 1 12.227033708921894 5.239076552819824 8.126984668679452 0 0 0
142 2 13.655638368609898 5.582388609355744 9.189424709732208 0 0 0
168 1 2.3271652684038604 10.676987223685053 9.435407102809183 0 0 0
156 2 4.480124164312323 11.241924552670147 10.197091451210166 0 0 0
195 1 6.390933242796166 10.409785737200782 9.27292668177691 0 0 0
177 1 11.206511817027351 8.949844382656737 7.82220360783184 0 0 0
69 2 9.872925908005199 10.271405324470436 9.415571496830385 0 0 0
164 2 12.367474043149224 8.970581974271782 9.540604276980348 0 0 0
71 1 13.938598631603767 9.94902968650588 8.106449304725128 0 0 0
16 2 8.093991750448096 14.545729390883087 7.715612354599345 0 -1 0
771 2 0.9682632652605374 15.078656736028814 8.462961263945216 1 0 0
151 2 0.9418123240389641 10.717170874290813 7.848401884046233 0 0 0
569 1 10.483312014443177 0.9836102547406871 0.3289070525966493 0 0 1
190 1 3.7306761804895 12.60350259122765 8.310867706044212 0 0 0
89 2 7.314603440847369 12.272813563020836 8.42511468965744 0 0 0
210 1 8.470355705375333 12.12645920130148 10.155125690464713 0 0 0
577 1 3.343733608596889 3.8476291838914336 -0.024800546049781585 0 0 1
1227 1 13.808308841617228 6.529881966004501 0.18183055901791068 0 0 1
606 1 10.513193049748338 5.886210932478462 -0.027207602363800595 0 0 1
117 1 3.6178535082441354 0.3434443659719798 11.279448055991946 0 0 0
205 1 12.23510046611316 0.33265380939239086 18.516579803758145 0 1 0
442 2 13.689469639499869 15.618344485869809 19.087224405472377 0 0 0
8 2 5.667279896000165 1.9219263368142498 13.289649904896372 0 0 0
295 2 13.599203880192608 8.214940173074599 16.362258903236157 0 0 0
231 1 6.23759859557793 1.645169163363646 11.646202150398366 0 0 0
318 1 9.142215100333328 0.7974241160669927 11.015203478090156 0 1 0
144 1 11.100925085277801 0.5464398005862748 12.980499754398002 0 0 0
235 1 13.595049050334056 0.4848656359441457 12.244416665968254 0 0 0
254 2 12.808036321231501 2.3654512526941636 11.529286380444125 0 0 0
909 1 1.3727957706530687 4.4254758526644675 13.16361301432703 1 0 0
245 2 3.142143952925632 3.656584593027228 12.475370997729488 0 0 0
801 1 3.5724717657490737 3.18051432349645 10.856738789728027 1 0 0
906 1 4.87735845830579 4.426541480926237 13.000391064458249 1 0 0
280 1 8.859988080580383 9.00632269390188 10.543549330372178 0 0 0
273 1 14.093848581251887 6.220256758659969 16.169643294432564 0 0 0
268 1 9.64513248218884 5.355621252715097 13.132023092873295 0 0 0
253 2 12.635466886223483 5.1451750265313025 12.222876774331477 0 0 0
926 1 2.3455230860787717 6.502289472243382 12.518268241668729 1 0 0
329 1 13.888879870147658 14.886984620563766 13.27742394069458 0 0 0
262 2 4.2711610452063935 5.889897109902678 11.315041376472315 0 0 0
264 1 6.494519154598528 6.633926688224054 10.685307408216197 0 0 0
307 2 6.537321302597493 5.343768599856802 12.316453445812071 0 0 0
175 2 9.270760129335386 6.8090537111539735 12.331447455505002 0 0 0
173 1 10.71656513879796 6.478699435482698 10.84066121413688 0 0 0
290 2 11.985590742753843 7.719740104376619 11.59277399717166 0 0 0
317 1 3.5959793303560055 10.707062910133333 11.633089797252314 0 0 0
209 2 3.7548211423004862 9.043988051991349 12.279790139492327 0 0 0
282 2 7.293109326269263 10.302710780755183 10.839965643910425 0 0 0
288 1 6.203975390450007 9.23766645458502 12.010203864610597 0 0 0
311 2 9.232595727774383 9.500941920367634 12.368279992994294 0 0 0
272 1 11.79901100361939 9.96248931665763 11.555044967297531 0 0 0
184 2 13.892093545716147 9.98665772489521 12.147326958862324 0 0 0
665 2 1.6250479365861596 11.744136285855465 12.568511786780425 1 0 1
309 1 6.111420132967976 12.28617766169233 11.692895553587432 0 0 0
160 2 4.458961128545646 12.32815453220033 12.511706038701034 0 0 0
178 1 8.296960031532878 11.370894187930134 12.351362722690146 0 0 0
230 2 6.050984241835995 14.916933927688664 13.913020068054143 0 -1 0
183 2 9.707019174956313 12.694420029269398 11.695843402631901 0 0 0
182 1 14.013997305972937 12.057999963865738 11.35487759138584 0 0 0
784 2 1.7610640868058687 15.641004719731383 11.086599894831098 1 -1 0
213 2 4.7378401217175234 15.298633209407084 11.241397019752833 0 0 0
227 1 7.492977702940339 0.3545785857736292 13.787889286550499 0 0 0
211 1 6.66508114423259 15.432678924991112 12.05554074039428 0 0 0
787 2 7.823797737486689 1.56725795367859 12.348461844749734 1 0 0
788 2 0.9558107585726813 2.2449838167498055 12.445598168803912 1 0 0
325 1 8.709511541956669 14.545855294279239 12.311966266243209 0 0 0
201 2 10.54605930220769 15.923391631860985 11.527868158224788 0 0 0
199 1 10.909596612494449 14.167326384962532 11.430513306505546 0 0 0
893 2 1.2687119188064064 0.44634487563567343 13.98251017870116 1 0 0
204 2 12.556014970734322 13.44246806385854 12.023646688617031 0 0 0
258 2 14.287775750861433 2.755611162271938 17.219873293639925 0 0 0
131 1 2.85709111528384 1.8044688284988553 12.99057139610059 0 0 0
319 2 6.924869725049665 0.21495516073003615 15.635177352350565 0 1 0
247 1 8.532982685389316 3.05331370063264 13.32681923279847 0 0 0
249 2 7.957921846632226 3.069102724041674 15.898428541106433 0 0 0
126 2 10.380140151336416 2.0413934676563716 13.933611047519443 0 0 0
137 1 12.703121636176968 3.533262943543379 16.509874895442675 0 0 0
861 2 12.758796134299676 16.260982808196268 14.282882372174267 0 0 0
891 1 2.117512873011251 3.051818135225819 17.032835487496353 1 0 0
980 2 4.510340962403113 3.5477695988619256 14.657265380416204 1 1 0
243 1 6.3056798624019805 3.2449913908765935 15.30903118161928 0 0 0
174 1 8.22164936879322 4.4028892821171635 11.471661973426277 0 0 0
252 1 11.826355261290031 3.101947538289975 12.93747848836758 0 0 0
143 2 10.00478484284747 3.7281316392216675 12.295993073766821 0 0 0
248 1 9.26953309302659 4.354303147290462 15.630646274278325 0 0 0
233 2 12.714605851115735 3.115731687067866 14.773384944140606 0 0 0
191 1 3.826723374398327 8.212140811201795 10.666453107812114 0 0 0
263 2 1.9529259655847226 5.441229323590941 14.910012331030797 0 0 0
941 1 1.0698232177136051 6.37761886331156 16.558443141315067 1 0 0
119 2 4.371623986010243 6.209156682017236 13.767981357006724 0 0 0
270 2 8.769359566059007 6.176136144857194 14.669993016789615 0 0 0
224 1 6.767301066510828 6.561868655665921 14.227648697701337 0 0 0
284 1 8.231318057422543 8.196669182530584 13.513703039316292 0 0 0
180 2 8.552058983163652 9.153530071548403 15.025924190753061 0 0 0
275 2 11.405935212542781 6.50567227320678 13.980796503909742 0 0 0
269 1 12.858478156052168 7.052989284990566 13.020410159859676 0 0 0
257 2 14.130286103410928 5.780333487215898 14.194338449886303 0 0 0
391 1 1.5652501755671713 8.964914299099112 13.21922063696412 0 0 0
67 1 14.147677391933174 8.158210579198892 10.697675350863056 0 0 0
375 1 3.907791109418163 11.451763946609292 14.162430624233215 0 0 0
324 2 5.280543476233738 9.925245505021033 16.117631572845 0 0 0
266 2 5.994301691878003 8.631982796846456 13.789696524270637 0 0 0
170 1 10.752716054985923 9.961672176279082 13.792090008734233 0 0 0
274 2 12.22001360957653 8.76945113632805 14.060981924551685 0 0 0
292 1 13.650203029676172 9.860381513615737 13.918377985119319 0 0 0
321 1 3.893775392801049 13.980627187869912 12.0948630411547 0 0 0
283 2 2.8399109777263423 12.787719590737629 15.131295686258811 0 0 0
232 1 6.96988533759212 9.893755425375485 14.910280783236509 0 -1 0
323 2 6.812365979772951 11.560841988003292 13.564219708196694 0 0 0
305 1 7.298699029799447 13.620126797097614 13.859228866240922 0 0 0
203 2 9.218098582796383 11.44644392379498 14.340005725828995 0 0 0
120 1 9.453406172327687 12.933410640474644 15.97898527845249 0 -1 0
326 1 11.762783864448354 11.785863684629856 13.1445864851901 0 0 0
294 2 13.380882538215227 11.793983467869083 14.02228351638863 0 0 0
979 1 0.7213773268990695 15.233608532143407 12.912826432738056 1 0 0
300 2 2.578501802585276 14.683711022642733 13.556121630607356 0 0 0
279 1 6.0847455799420125 14.440535024716123 16.109659678673754 0 0 0
342 1 8.38612623925277 15.42287709659067 16.160764282310787 0 -1 0
229 2 9.302030452777887 14.310563848112416 14.375689761492428 0 -1 0
127 2 11.34002398749976 12.772562979366752 14.790308388302178 0 -1 0
124 1 11.270659951814803 14.607192250861603 14.156237455075907 0 -1 0
226 2 3.3149249745295464 1.1414935981862373 14.930023102492028 0 0 0
1014 1 1.7739156816318447 3.1895339663922724 18.842603038667214 1 0 0
223 1 4.593546756267637 0.9044533184719665 16.28606955583534 0 0 0
434 2 6.247335095163204 1.921839032428663 19.343643646367983 0 1 0
238 2 9.460163710652244 0.657694394615186 17.112261053203188 0 0 0
346 1 7.749430947649245 1.9580683879928882 17.731805423224838 0 0 0
125 1 10.119953431105202 1.0585254014611505 15.428720835935506 0 0 0
236 1 14.024502292423625 0.7809091799304204 15.579195977225512 0 0 0
804 1 0.5776143757633455 1.7329239312054558 10.606986155184712 1 0 0
256 1 13.946500916241085 2.835611051384457 19.26441394526031 0 0 0
113 1 1.7707590566474118 12.848412117926719 10.925689961349224 0 -1 0
320 2 4.3630293217558345 2.565185802857269 16.825259936205246 0 1 0
354 1 3.8935431731939376 4.834797433935864 16.05547264033711 0 0 0
250 2 6.018249464522786 4.648221096875614 16.34868442484019 0 0 0
271 2 9.105850373141283 5.710069428263902 17.00595556488611 0 0 0
237 2 10.484755170191296 3.550507012393527 16.659833381914446 0 0 0
362 1 11.381526785117774 4.689271513132572 15.174498781864541 0 0 0
240 2 11.907874622116505 5.576510378705407 17.082691317011932 0 0 0
371 1 1.729139365304018 8.594124584344238 15.770663012057986 0 0 0
246 2 2.832071925994394 6.031159984286936 17.20960983901482 0 0 0
432 1 5.015041592539857 8.132139893805068 17.194133453762777 0 0 0
287 2 6.5067214410187795 7.189107517805089 16.63225617871797 0 0 0
244 1 7.2152480460277495 8.443511271059831 18.884114139680392 0 0 0
265 1 8.57101127849347 7.37259326898946 16.4545554889715 0 0 0
291 2 10.521612899074107 8.189948471470776 16.77715319271547 0 0 0
197 2 10.522686594659111 16.054944514013698 19.21622755038435 0 0 0
803 2 0.6035839165929394 6.428003827226461 10.819359122465505 1 0 0
961 1 1.1705876734927727 12.097334216034422 15.663175682122814 1 0 0
373 2 2.2511833888121138 10.521335250564515 16.665073664689466 0 0 0
267 2 3.5222403236792768 8.139930542423764 15.97237312233221 0 0 0
414 2 4.659154022449783 12.259879925002299 17.860115314390637 0 0 0
281 1 3.8653605940435036 8.132349792493843 14.219693140011634 0 0 0
304 2 8.216201792839552 9.176886335100155 17.377834015536028 0 0 0
285 1 10.125626268630114 10.318612269212219 16.248733720787406 0 0 0
289 1 11.801806507463146 8.16544615141693 15.55494492846732 0 0 0
312 2 11.813149343679985 11.286457798997581 16.699782527539437 0 0 0
298 1 2.4502542019411067 14.763944959796556 15.597666109930167 0 0 0
1050 2 0.8324977866651185 13.678827558144013 17.05944062765702 1 0 0
301 1 4.8306631319970315 12.030592571573726 16.025258165548586 0 0 0
308 2 7.357741457272402 11.872734356779892 15.913060047179819 0 0 0
310 1 13.824864766062827 11.932110462549637 15.991518299009595 0 0 0
332 2 13.535593808171825 13.876340898777418 16.974589316946002 0 0 0
316 1 1.3592337989872851 1.2109921674910298 16.224202754783928 0 1 0
299 2 2.850272769998166 16.19454267296751 17.268153832263533 0 0 0
234 2 5.556988204259949 15.731672763110575 17.487575508897766 0 -1 0
172 2 7.756627971206355 13.966389290345099 17.263976334333947 0 0 0
302 1 7.112513898902602 13.732289010009527 18.795198777757555 0 0 0
306 1 10.901485765011403 13.397502917821352 18.56562192459219 0 0 0
286 2 10.75040714600442 13.71931622817669 16.974877663105783 0 0 0
436 1 12.046822989378581 15.140030951671935 16.66114641256265 0 0 0
331 2 12.208889300254532 0.862841998040108 16.68278300164322 0 1 0
334 1 2.6643921083710413 0.31761470320971136 19.133843835397375 0 0 0
336 2 2.889598487243465 1.9318913296450064 19.719019973106324 0 0 0
338 1 4.353706753761108 2.903745471109009 18.71655589800792 0 0 0
438 2 8.85545689409985 2.088986560088428 19.28062696527489 0 1 0
911 2 0.5618231192797201 4.405274953198037 17.288776755298226 1 0 0
366 1 10.130940426521184 3.1131919598447575 18.685014361891252 0 0 0
322 1 8.763755099151684 0.19459741856134427 18.876001971728623 0 1 0
348 2 12.277383974012697 1.9980936916368295 19.639170131069292 0 0 0
1015 2 0.9780342243831192 5.032284879470122 19.59609188775198 1 0 0
340 2 4.843547471009885 4.667965338881439 19.285966228570405 0 0 0
358 1 5.861198425213465 5.735696875547565 18.019398821629565 0 0 0
344 2 7.263959419870488 4.445579891473965 18.866722032222587 0 0 0
379 1 9.064634342493612 5.403907299112401 18.981864773327654 0 0 0
364 2 10.839674526230905 4.524146421472089 19.58919252197815 0 0 0
383 1 12.673633867908126 5.138851348347566 18.694612908785256 0 0 0
368 2 14.346819418979976 4.529036630664447 19.671667846166024 0 0 0
356 2 2.707184594962525 7.670859108845277 19.26389311599167 0 0 0
395 1 2.7808157105465328 5.718695478147313 19.169441928165412 0 0 0
360 2 5.209553445773772 7.301305279542938 18.89951530345147 0 0 0
381 2 8.956811302204468 7.287257738537692 18.86959416391745 0 0 0
399 1 10.855150311448101 7.935377614426781 18.595606121776957 0 0 0
403 1 13.957126895528416 8.249605504381284 18.276532333115135 0 0 0
385 2 12.568540631914368 7.14304845755012 19.22904030802336 0 0 0
1049 1 1.308695345083697 8.837081029282228 17.972580291912447 1 0 0
393 2 0.9608116850607856 10.480550439246315 18.941346014488634 0 0 0
408 1 2.79024722876637 11.286704917493637 18.406747715022426 0 0 0
377 2 4.374667531282894 9.654694601611915 18.834460145408656 0 0 0
412 1 6.0000095000689795 10.608349968549362 18.895759501017256 0 0 0
397 2 7.931509839647447 10.25443283578454 19.58141451433155 0 0 0
401 2 10.860712332246107 10.05378494748353 19.170771023676668 0 0 0
405 2 13.857707672582746 9.79821991537267 19.126387634308745 0 0 0
420 1 12.243814463288722 10.823769217453437 18.729727482785666 0 0 0
1084 1 1.415928134692908 13.960508152692276 18.647465255554096 1 0 0
410 2 2.6702253909418747 12.695306706808015 19.312227814611862 0 0 0
428 1 4.442252677470929 13.790264744879533 18.851341012106577 0 0 0
418 2 6.088653615948945 12.522536889767462 19.807769375221074 0 0 0
328 2 9.1302233925945 13.090838688692182 19.04998104817097 0 0 0
416 1 9.255323691920264 11.399124785572564 18.341456690026526 0 0 0
422 2 12.287248337029272 12.654806923399756 19.57125478359748 0 0 0
225 2 1.3995065608416948 3.0338513387728976 15.052666626695293 0 0 0
440 1 13.647505219740225 13.807213744999833 18.631960248346655 0 0 0
1085 2 0.9191263572345495 15.45517808558897 19.319485953310434 1 0 0
228 1 5.801618784159357 16.269578736460954 19.008760876494605 0 -1 0
430 2 4.1713409188610555 15.346063036732222 19.413633200380634 0 0 0
327 2 7.289872865313643 15.46099302582355 19.59616968530877 0 0 0
135 2 5.876844192878314 3.1082191291593997 10.364143124881577 0 0 0
217 2 7.213221065654401 14.153810949595277 10.756641796234852 0 0 0
946 2 1.1964277131459644 10.126404156121145 14.515473263919056 1 0 0
745 2 13.379932533753694 15.977215078060281 10.426553001607427 0 0 0
158 1 13.099863585637122 4.1415304267684565 10.346161388493385 0 0 0
337 2 0.7701907817671266 1.0962004317738443 21.723778554247918 0 0 0
421 1 12.245641445154435 12.792221833318587 21.55002992575186 0 0 0
341 2 4.158649145892989 0.9030287688641234 21.764257450295936 0 0 0
449 1 4.160388835905442 0.6519323805082482 23.645354707326174 0 0 0
345 2 7.7064273716598874 1.4241548031509965 21.512162590232222 0 0 0
349 2 11.059090041202548 1.486107369364935 21.652710971155994 0 0 0
457 1 10.455785567552228 0.5922753703962718 23.453148509585905 0 0 0
376 1 5.331509714274396 7.165277347669019 20.978917425261212 0 0 0
352 2 13.462032203439007 1.3932494935110782 22.033531023711966 0 0 0
347 1 12.369434026689044 2.5651938234978746 21.22985488343933 0 0 0
353 1 1.4722098844113463 5.142884763868948 21.61781295710743 0 0 0
357 2 2.7698411753110928 3.7893416867994105 21.909225253997562 0 0 0
361 2 5.842355695091471 3.8658312013183904 21.48943381617567 0 0 0
355 1 4.3066918454536065 4.69359941332805 21.382827844513713 0 0 0
1262 1 12.879071958412485 12.018799376667916 30.97947036836636 0 0 0
365 2 8.963337399639324 3.985540147389762 22.054394523694146 0 0 0
363 1 10.8782944421176 4.63768415465335 21.30241145405774 0 0 0
369 2 12.619996725528324 4.110730644870913 22.22195144986207 0 0 0
367 1 14.104244443424804 4.551569360654041 21.57302043004062 0 0 0
374 2 1.1885791538512709 7.004787577219891 22.35194813861326 0 0 0
372 1 2.5740378879518637 8.014508192468186 21.282897270965933 0 0 0
378 2 4.111446059095692 6.628848123787108 22.138177197996093 0 0 0
626 1 12.123553363911984 9.35152795389123 31.138950261250947 0 0 0
382 2 7.325495019366164 6.546044741976783 21.67688306211762 0 0 0
386 2 11.334319095079616 6.360413407963457 22.017931032524306 0 0 0
380 1 9.605883631790709 7.448225093575183 21.255770282863267 0 0 0
389 2 13.95435176589735 6.297212817193221 21.69286095863578 0 0 0
384 1 12.371484733717377 7.3018753899851925 21.012601529077642 0 0 0